    -----------------------------------------------------------------------
          PSI4: An Open-Source Ab Initio Electronic Structure Package
                              PSI 4.0 Driver

               Git: Rev {master} 53eb0d664635517b7d198f70f7e31559fc65bf07

    J. M. Turney, A. C. Simmonett, R. M. Parrish, E. G. Hohenstein,
    F. A. Evangelista, J. T. Fermann, B. J. Mintz, L. A. Burns, J. J. Wilke,
    M. L. Abrams, N. J. Russ, M. L. Leininger, C. L. Janssen, E. T. Seidl,
    W. D. Allen, H. F. Schaefer, R. A. King, E. F. Valeev, C. D. Sherrill,
    and T. D. Crawford, WIREs Comput. Mol. Sci. 2, 556-565 (2012)
    (doi: 10.1002/wcms.93)

                         Additional Contributions by
    A. E. DePrince, M. Saitow, U. Bozkaya, A. Yu. Sokolov
    -----------------------------------------------------------------------

    Process ID:   2121
    PSI4DATADIR: /Users/andysim/programming/psi4/lib
    Memory level set to 256.000 MB

  ==> Input File <==

--------------------------------------------------------------------------
molecule n2 {
  N
  N 1 R

  R = 1.11
}

plugin_load("./mollerplesset2.so")

set {
  basis cc-pVDZ
  reference rhf
  d_convergence 10
  freeze_core true
  e_convergence 10
}

eRHFDimer = scf()
plugin("mollerplesset2.so")
eMP2Dimer = get_variable("MP2 ENERGY")
clean()

molecule n {
   0 4
   N
}

set reference uhf
set basis cc-pvdz

eUHFMonomer = scf()
plugin("mollerplesset2.so")
eUMP2Monomer = get_variable("MP2 ENERGY")
clean()

set reference rohf 

eROHFMonomer = scf()
plugin("mollerplesset2.so")
eROMP2Monomer = get_variable("MP2 ENERGY")
clean()

print "E RHF   = %16.10f\n" % eRHFDimer
print "E RMP2  = %16.10f\n" % eMP2Dimer
print "E ROHF  = %16.10f\n" % eROHFMonomer
print "E ROMP2 = %16.10f\n" % eROMP2Monomer
print "E UHF   = %16.10f\n" % eUHFMonomer
print "E UMP2  = %16.10f\n" % eUMP2Monomer

compare_values(-108.951981482, eRHFDimer    , 5, 'RHF')
compare_values(-109.262019962, eMP2Dimer    , 5, 'RMP2')
compare_values( -54.388414237, eROHFMonomer , 5, 'ROHF')
compare_values( -54.461468526, eROMP2Monomer, 5, 'ROMP2')
compare_values( -54.391114562, eUHFMonomer  , 5, 'UHF')
compare_values( -54.461855085, eUMP2Monomer , 5, 'UMP2')

print "ROHF Binding energy  = %7.2f kcal/mol\n" % (627.51*(eRHFDimer - 2.0*eROHFMonomer))
print "UHF Binding energy   = %7.2f kcal/mol\n" % (627.51*(eRHFDimer - 2.0*eUHFMonomer))
print "ROMP2 Binding energy = %7.2f kcal/mol\n" % (627.51*(eMP2Dimer - 2.0*eROMP2Monomer))
print "UMP2 Binding energy  = %7.2f kcal/mol\n" % (627.51*(eMP2Dimer - 2.0*eUMP2Monomer))

--------------------------------------------------------------------------
