    -----------------------------------------------------------------------
          PSI4: An Open-Source Ab Initio Electronic Structure Package
                              PSI 4.0.0-beta5+ Driver

               Git: Rev {master} 7a07c57088e0818f09e70bfa0a2524bf784b16bd

    J. M. Turney, A. C. Simmonett, R. M. Parrish, E. G. Hohenstein,
    F. A. Evangelista, J. T. Fermann, B. J. Mintz, L. A. Burns, J. J. Wilke,
    M. L. Abrams, N. J. Russ, M. L. Leininger, C. L. Janssen, E. T. Seidl,
    W. D. Allen, H. F. Schaefer, R. A. King, E. F. Valeev, C. D. Sherrill,
    and T. D. Crawford, WIREs Comput. Mol. Sci. 2, 556-565 (2012)
    (doi: 10.1002/wcms.93)

                         Additional Contributions by
    A. E. DePrince, M. Saitow, U. Bozkaya, A. Yu. Sokolov
    -----------------------------------------------------------------------

    Process ID:  25283
    PSI4DATADIR: /Users/crawdad/psi4/share/psi

    Using LocalCommunicator (Number of processes = 1)

    Memory level set to 256.000 MB

  ==> Input File <==

--------------------------------------------------------------------------
molecule {
0 1
    O         0.000000000000     0.000000000000    -0.116529192243
    H        -0.000000000000     1.344767972762     0.924701422022
    F        -0.000000000000    -1.344767972762     0.924701422022
no_reorient
no_com
units bohr
symmetry c1
}

set {
  reference uhf
  basis sto-3g
  freeze_core false
  r_convergence 1e-13
}

set findif { points 3 }
gradient('ccsd(t)', dertype=0)
fd_grad = psi4.wavefunction().gradient()
fd_grad.print_out()


--------------------------------------------------------------------------

-------------------------------------------------------------

  Using finite-differences of energies to determine gradients (fd_geoms_1_0).
	Generating geometries for use with 3-point formula.
	Displacement size will be 5.00e-03.
	Number of atoms is 3.
	Number of symmetric SALC's is 3.
	Number of displacements (including reference) is 7.

-------------------------------------------------------------

  //>>>>>>>>>>>>>>>>>>>>>>>>>>>>>>>>>>>//
  //    Loading displacement 1 of 7    //
  //<<<<<<<<<<<<<<<<<<<<<<<<<<<<<<<<<<<//

*** tstart() called on ganymede.local
*** at Wed Jan 15 10:58:26 2014


         ---------------------------------------------------------
                                   SCF
            by Justin Turney, Rob Parrish, and Andy Simmonett
                              UHF Reference
                        1 Threads,    256 MiB Core
         ---------------------------------------------------------

  ==> Geometry <==

    Molecular point group: c1
    Full point group: Cs

    Geometry (in Bohr), charge = 0, multiplicity = 1:

       Center              X                  Y                   Z       
    ------------   -----------------  -----------------  -----------------
           O          0.000000000000    -0.000765112223    -0.116099344961
           H          0.000000000000     1.345379677504     0.925991441403
           F          0.000000000000    -1.344156268020     0.924271097205

  Running in c1 symmetry.


	Rotational constants (cm^-1):
	A =   24.28050    B =    1.18085   C =    1.12608

	Rotational constants (MHz):
	A = 727911.07031    B = 35400.94907   C = 33759.12088
  Nuclear repulsion =   50.420059921858879

  Charge       = 0
  Multiplicity = 1
  Electrons    = 18
  Nalpha       = 9
  Nbeta        = 9

  ==> Algorithm <==

  SCF Algorithm Type is PK.
  DIIS enabled.
  MOM disabled.
  Fractional occupation disabled.
  Guess Type is CORE.
  Energy threshold   = 1.00e-10
  Density threshold  = 1.00e-10
  Integral threshold = 0.00e+00

  ==> Primary Basis <==

  Basis Set: STO-3G
    Number of shells: 7
    Number of basis function: 11
    Number of Cartesian functions: 11
    Spherical Harmonics?: true
    Max angular momentum: 1

  ==> Pre-Iterations <==

   -------------------------------------------------------
    Irrep   Nso     Nmo     Nalpha   Nbeta   Ndocc  Nsocc
   -------------------------------------------------------
     A         11      11       0       0       0       0
   -------------------------------------------------------
    Total      11      11       9       9       9       0
   -------------------------------------------------------

  Starting with a DF guess...

 OEINTS: Wrapper to libmints.
   by Justin Turney

   Calculation information:
      Number of atoms:                   3
      Number of AO shells:               7
      Number of SO shells:               7
      Number of primitives:             21
      Number of atomic orbitals:        11
      Number of basis functions:        11

      Number of irreps:                  1
      Number of functions per irrep: [  11 ]

      Overlap, kinetic, potential, dipole, and quadrupole integrals
        stored in file 35.

  ==> Integral Setup <==

  ==> DFJK: Density-Fitted J/K Matrices <==

    J tasked:                  Yes
    K tasked:                  Yes
    wK tasked:                  No
    OpenMP threads:              1
    Integrals threads:           1
    Memory (MB):               183
    Algorithm:                Core
    Integral Cache:           NONE
    Schwarz Cutoff:          1E-12
    Fitting Condition:       1E-12

   => Auxiliary Basis Set <=

  Basis Set: CC-PVDZ-JKFIT
    Number of shells: 57
    Number of basis function: 163
    Number of Cartesian functions: 187
    Spherical Harmonics?: true
    Max angular momentum: 3

  Minimum eigenvalue in the overlap matrix is 1.6258242715E-01.
  Using Symmetric Orthogonalization.
  SCF Guess: Core (One-Electron) Hamiltonian.

  ==> Iterations <==

                           Total Energy        Delta E     RMS |[F,P]|

   @DF-UHF iter   1:  -167.16029953595853   -1.67160e+02   1.15989e-01 
   @DF-UHF iter   2:  -171.09192081904371   -3.93162e+00   8.25217e-02 DIIS
   @DF-UHF iter   3:  -171.54738990789303   -4.55469e-01   1.35532e-02 DIIS
   @DF-UHF iter   4:  -171.56483022086604   -1.74403e-02   2.97508e-03 DIIS
   @DF-UHF iter   5:  -171.56572952562897   -8.99305e-04   4.51254e-04 DIIS
   @DF-UHF iter   6:  -171.56575488538749   -2.53598e-05   5.92549e-05 DIIS
   @DF-UHF iter   7:  -171.56575532623316   -4.40846e-07   6.15133e-06 DIIS
   @DF-UHF iter   8:  -171.56575533089864   -4.66548e-09   8.00953e-07 DIIS
   @DF-UHF iter   9:  -171.56575533095872   -6.00835e-11   6.37467e-08 DIIS
   @DF-UHF iter  10:  -171.56575533095929   -5.68434e-13   5.91441e-09 DIIS
   @DF-UHF iter  11:  -171.56575533095906    2.27374e-13   8.22130e-10 DIIS
   @DF-UHF iter  12:  -171.56575533095906    0.00000e+00   4.81223e-11 DIIS

  DF guess converged.

  ==> Integral Setup <==

 MINTS: Wrapper to libmints.
   by Justin Turney

   Calculation information:
      Number of atoms:                   3
      Number of AO shells:               7
      Number of SO shells:               7
      Number of primitives:             21
      Number of atomic orbitals:        11
      Number of basis functions:        11

      Number of irreps:                  1
      Integral cutoff                 0.00e+00
      Number of functions per irrep: [  11 ]

      Overlap, kinetic, potential, dipole, and quadrupole integrals
        stored in file 35.

      Computing two-electron integrals...done
      Computed 1283 non-zero two-electron integrals.
        Stored in file 33.

	Batch   1 pq = [       0,      66] index = [             0,2211]
  ==> DiskJK: Disk-Based J/K Matrices <==

    J tasked:                  Yes
    K tasked:                  Yes
    wK tasked:                  No
    Memory (MB):               183
    Schwarz Cutoff:          1E-12

   @UHF iter  13:  -171.56615283844332   -3.97507e-04   1.31780e-05 DIIS
   @UHF iter  14:  -171.56615286023441   -2.17911e-08   3.24140e-06 DIIS
   @UHF iter  15:  -171.56615286189276   -1.65835e-09   7.28874e-07 DIIS
   @UHF iter  16:  -171.56615286196831   -7.55449e-11   6.02383e-08 DIIS
   @UHF iter  17:  -171.56615286196859   -2.84217e-13   6.02230e-09 DIIS
   @UHF iter  18:  -171.56615286196859    0.00000e+00   5.97047e-10 DIIS
   @UHF iter  19:  -171.56615286196876   -1.70530e-13   8.19638e-11 DIIS

  ==> Post-Iterations <==

   @Spin Contamination Metric:   7.105427358E-15
   @S^2 Expected:                0.000000000E+00
   @S^2 Observed:                7.105427358E-15
   @S   Expected:                0.000000000E+00
   @S   Observed:                0.000000000E+00

	Orbital Energies (a.u.)
	-----------------------

	Alpha Occupied:                                                       

	   1A    -26.128581     2A    -20.492261     3A     -2.118019  
	   4A     -1.119970     5A     -0.929734     6A     -0.903263  
	   7A     -0.759455     8A     -0.329329     9A     -0.244928  

	Alpha Virtual:                                                        

	  10A      0.670466    11A      1.465043  

	Beta Occupied:                                                        

	   1A    -26.128581     2A    -20.492261     3A     -2.118019  
	   4A     -1.119970     5A     -0.929734     6A     -0.903263  
	   7A     -0.759455     8A     -0.329329     9A     -0.244928  

	Beta Virtual:                                                         

	  10A      0.670466    11A      1.465043  

	Final Occupation by Irrep:
	          A 
	DOCC [     9 ]
	SOCC [     0 ]

  Energy converged.

  @UHF Final Energy:  -171.56615286196876

   => Energetics <=

    Nuclear Repulsion Energy =             50.4200599218588792
    One-Electron Energy =                -337.9213465896478965
    Two-Electron Energy =                 115.9351338058202856
    DFT Exchange-Correlation Energy =       0.0000000000000000
    Empirical Dispersion Energy =           0.0000000000000000
    Total Energy =                       -171.5661528619687601



Properties will be evaluated at   0.000000,   0.000000,   0.000000 Bohr
  ==> Properties <==


Properties computed using the SCF density density matrix
  Nuclear Dipole Moment: (a.u.)
     X:     0.0000      Y:   -10.7581      Z:     8.3156

  Electronic Dipole Moment: (a.u.)
     X:     0.0000      Y:    11.0322      Z:    -7.9145

  Dipole Moment: (a.u.)
     X:     0.0000      Y:     0.2740      Z:     0.4011     Total:     0.4858

  Dipole Moment: (Debye)
     X:     0.0000      Y:     0.6965      Z:     1.0195     Total:     1.2347


  Saving occupied orbitals to File 180.

*** tstop() called on ganymede.local at Wed Jan 15 10:58:26 2014
Module time:
	user time   =       0.19 seconds =       0.00 minutes
	system time =       0.02 seconds =       0.00 minutes
	total time  =          0 seconds =       0.00 minutes
Total time:
	user time   =       0.19 seconds =       0.00 minutes
	system time =       0.02 seconds =       0.00 minutes
	total time  =          0 seconds =       0.00 minutes

*** tstart() called on ganymede.local
*** at Wed Jan 15 10:58:26 2014


	**************************************************
	* TRANSQT2: Program to transform integrals from  *
	*           the SO basis to the MO basis.        *
	*                                                *
	*            Daniel, David, & Justin             *
	**************************************************


	Input parameters:
	-----------------
	Wave function   =	CCSD_T
	Backtransform   =	No
	Print Level     =	1
	Print TEIs      =	No
	Reference wfn   =	UHF
	Derivative      =	None
	Delete TEI File =	Yes
	Memory (Mbytes) =	256.0
	Cache Level     =	2
	Cache Type      =	LRU
	Chkpt Parameters:
	--------------------
	Number of irreps     = 1
	Number of SOs        = 11
	Number of MOs        = 11
	Number of active MOs = 11

	Label	# SOs	# FZDC	# DOCC	# SOCC	# VIRT	# FZVR
	-----	-----	------	------	------	------	------
	 A	   11	    0	    9	    0	    2	    0

	Nuclear Rep. energy (chkpt) =     50.42005992185888
	SCF energy          (chkpt) =   -171.56615286196876

	Presorting SO-basis two-electron integrals.
	Sorting File: SO Ints (pq,rs) nbuckets = 1
	Frozen-core energy =    0.000000000000000
	Starting AA/AB first half-transformation.
	Sorting AA/AB half-transformed integrals.
	Starting AA second half-transformation.
	Starting AB second half-transformation.
	Starting BB first half-transformation.
	Sorting BB half-transformed integrals.
	Starting BB second half-transformation.
	Two-electron integral transformation complete.

*** tstop() called on ganymede.local at Wed Jan 15 10:58:26 2014
Module time:
	user time   =       0.01 seconds =       0.00 minutes
	system time =       0.01 seconds =       0.00 minutes
	total time  =          0 seconds =       0.00 minutes
Total time:
	user time   =       0.20 seconds =       0.00 minutes
	system time =       0.03 seconds =       0.00 minutes
	total time  =          0 seconds =       0.00 minutes

*** tstart() called on ganymede.local
*** at Wed Jan 15 10:58:26 2014


			**************************
			*                        *
			*         CCSORT         *
			*                        *
			**************************


	Input parameters:
	-----------------
	Wave function   =	CCSD_T
	Reference wfn   =	UHF
	Derivative      =	None
	Memory (Mbytes) =	256.0
	AO Basis        =	NONE
	Make (ab|cd)    =	True
	Make unpacked (ab|cd) =	True
	Cache Level     =	2
	Cache Type      =	LRU
	Local CC        =     No


	Chkpt Parameters:
	--------------------
	Number of irreps     = 1
	Number of MOs        = 11
	Number of active MOs = 11

	Label	# MOs	# FZDC	# DOCC	# SOCC	# VIRT	# FZVR
	-----	-----	------	------	------	------	------
	 A	   11	    0	    9	    0	    2	    0

	Nuclear Rep. energy (chkpt) =     50.42005992185888
	SCF energy          (chkpt) =   -171.56615286196876

	Size of irrep 0 of <AB|CD> integrals:      0.000 (MW) /      0.000 (MB)
	Total:                                     0.000 (MW) /      0.000 (MB)

	Size of irrep 0 of <ab|cd> integrals:      0.000 (MW) /      0.000 (MB)
	Total:                                     0.000 (MW) /      0.000 (MB)

	Size of irrep 0 of <Ab|Cd> integrals:      0.000 (MW) /      0.000 (MB)
	Total:                                     0.000 (MW) /      0.000 (MB)

	Size of irrep 0 of <IA|BC> integrals:      0.000 (MW) /      0.001 (MB)
	Total:                                     0.000 (MW) /      0.001 (MB)

	Size of irrep 0 of <ia|bc> integrals:      0.000 (MW) /      0.001 (MB)
	Total:                                     0.000 (MW) /      0.001 (MB)

	Size of irrep 0 of <Ia|Bc> integrals:      0.000 (MW) /      0.001 (MB)
	Total:                                     0.000 (MW) /      0.001 (MB)

	Size of irrep 0 of <iA|bC> integrals:      0.000 (MW) /      0.001 (MB)
	Total:                                     0.000 (MW) /      0.001 (MB)

	Size of irrep 0 of tIjAb amplitudes:       0.000 (MW) /      0.003 (MB)
	Total:                                     0.000 (MW) /      0.003 (MB)


	Sorting File: A <IJ|KL> nbuckets = 1
	Sorting File: B <AB|CD> nbuckets = 1
	Sorting File: C <IA|JB> nbuckets = 1
	Sorting File: D <IJ|AB> nbuckets = 1
	Sorting File: E <AI|JK> nbuckets = 1
	Sorting File: F <IA|BC> nbuckets = 1
	Sorting File: F <AI|BC> nbuckets = 1
	Sorting File: A <ij|kl> nbuckets = 1
	Sorting File: B <ab|cd> nbuckets = 1
	Sorting File: C <ia|jb> nbuckets = 1
	Sorting File: D <ij|ab> nbuckets = 1
	Sorting File: E <ai|jk> nbuckets = 1
	Sorting File: F <ia|bc> nbuckets = 1
	Sorting File: F <ai|bc> nbuckets = 1
	Sorting File: A <Ij|Kl> nbuckets = 1
	Sorting File: B <Ab|Cd> nbuckets = 1
	Sorting File: C <Ia|Jb> nbuckets = 1
	Sorting File: C <Ai|Bj> nbuckets = 1
	Sorting File: D <Ij|Ab> nbuckets = 1
	Sorting File: E <Ai|Jk> nbuckets = 1
	Sorting File: E <Ij|Ka> nbuckets = 1
	Sorting File: F <Ia|Bc> nbuckets = 1
	Sorting File: F <aI|bC> nbuckets = 1
	Sorting File: F <Ab|Ci> nbuckets = 1
	Sorting File: F <Ai|Bc> nbuckets = 1
	One-electron energy          =   -337.92134659017540
	Two-electron (AA) energy     =     24.16545321758094
	Two-electron (BB) energy     =     24.16545321758094
	Two-electron (AB) energy     =     67.60422737118596
	Two-electron energy          =    115.93513380634784
	Frozen-core energy (transqt) =      0.00000000000000
	Reference energy             =   -171.56615286196870

*** tstop() called on ganymede.local at Wed Jan 15 10:58:26 2014
Module time:
	user time   =       0.03 seconds =       0.00 minutes
	system time =       0.06 seconds =       0.00 minutes
	total time  =          0 seconds =       0.00 minutes
Total time:
	user time   =       0.23 seconds =       0.00 minutes
	system time =       0.09 seconds =       0.00 minutes
	total time  =          0 seconds =       0.00 minutes

*** tstart() called on ganymede.local
*** at Wed Jan 15 10:58:26 2014

			**************************
			*                        *
			*        CCENERGY        *
			*                        *
			**************************

	Nuclear Rep. energy (chkpt)   =   50.420059921858879
	SCF energy          (chkpt)   = -171.566152861968760
	Reference energy    (file100) = -171.566152861968703

	Input parameters:
	-----------------
	Wave function   =   CCSD_T
	Reference wfn   =     UHF
	Memory (Mbytes) =     256.0
	Maxiter         =     50
	R_Convergence   =     1.0e-13
	E_Convergence   =     1.0e-08
	Restart         =     No
	DIIS            =     Yes
	AO Basis        =     NONE
	ABCD            =     NEW
	Cache Level     =     2
	Cache Type      =     LRU
	Print Level     =     1
	Num. of threads =     1
	# Amps to Print =     10
	Print MP2 Amps? =     No
	Analyze T2 Amps =     No
	Print Pair Ener =     No
	Local CC        =     No
	SCS-MP2         =     False
	SCSN-MP2        =     False
	SCS-CCSD        =     False

	            Solving CC Amplitude Equations
	            ------------------------------
  Iter             Energy              RMS        T1Diag      D1Diag    New D1Diag    D2Diag
  ----     ---------------------    ---------   ----------  ----------  ----------   --------
     0        -0.028879120286046    0.000e+00    0.000000    0.000000    0.000000    0.000000
     1        -0.035676398254405    2.876e-02    0.002714    0.000000    0.000000    0.000000
     2        -0.038953436046284    1.136e-02    0.004703    0.000000    0.000000    0.000000
     3        -0.038989787338945    2.109e-03    0.005206    0.000000    0.000000    0.000000
     4        -0.038970862817408    6.309e-04    0.005354    0.000000    0.000000    0.000000
     5        -0.038974865213755    1.382e-04    0.005393    0.000000    0.000000    0.000000
     6        -0.038974213808313    1.386e-05    0.005393    0.000000    0.000000    0.000000
     7        -0.038974294721516    1.894e-06    0.005394    0.000000    0.000000    0.000000
     8        -0.038974288174960    4.168e-07    0.005394    0.000000    0.000000    0.000000
     9        -0.038974287667520    8.788e-08    0.005394    0.000000    0.000000    0.000000
    10        -0.038974287546724    1.551e-08    0.005394    0.000000    0.000000    0.000000
    11        -0.038974287694148    3.019e-09    0.005394    0.000000    0.000000    0.000000
    12        -0.038974287660578    5.821e-10    0.005394    0.000000    0.000000    0.000000
    13        -0.038974287655454    8.040e-11    0.005394    0.000000    0.000000    0.000000
    14        -0.038974287654708    2.007e-11    0.005394    0.000000    0.000000    0.000000
    15        -0.038974287655049    5.182e-12    0.005394    0.000000    0.000000    0.000000
    16        -0.038974287655165    1.314e-12    0.005394    0.000000    0.000000    0.000000
    17        -0.038974287655167    2.549e-13    0.005394    0.000000    0.000000    0.000000
    18        -0.038974287655166    5.703e-14    0.005394    0.000000    0.000000    0.000000

	Iterations converged.


	Largest TIA Amplitudes:
	          7   0         0.0158449052
	          6   0        -0.0019446001
	          4   1         0.0017453101
	          7   1         0.0012605578
	          3   1         0.0010604520
	          3   0         0.0007219574
	          4   0        -0.0006834622
	          6   1        -0.0003919049
	          2   0        -0.0002395646
	          2   1         0.0001477647

	Largest Tia Amplitudes:
	          7   0         0.0158449052
	          6   0        -0.0019446001
	          4   1         0.0017453101
	          7   1         0.0012605578
	          3   1         0.0010604520
	          3   0         0.0007219574
	          4   0        -0.0006834622
	          6   1        -0.0003919049
	          2   0        -0.0002395646
	          2   1         0.0001477647

	Largest TIJAB Amplitudes:
	  6   4   1   0        -0.0101719222
	  6   3   1   0         0.0084282385
	  7   6   1   0        -0.0065017819
	  4   2   1   0        -0.0050181039
	  3   2   1   0         0.0047367027
	  7   2   1   0         0.0045903039
	  4   3   1   0        -0.0039641639
	  7   3   1   0         0.0020019519
	  7   4   1   0         0.0009943191
	  4   1   1   0        -0.0003663292

	Largest Tijab Amplitudes:
	  6   4   1   0        -0.0101719222
	  6   3   1   0         0.0084282385
	  7   6   1   0        -0.0065017819
	  4   2   1   0        -0.0050181039
	  3   2   1   0         0.0047367027
	  7   2   1   0         0.0045903039
	  4   3   1   0        -0.0039641639
	  7   3   1   0         0.0020019519
	  7   4   1   0         0.0009943191
	  4   1   1   0        -0.0003663292

	Largest TIjAb Amplitudes:
	  7   7   0   0        -0.0696800925
	  3   3   0   0        -0.0322467759
	  3   7   0   0         0.0287770124
	  7   3   0   0         0.0287770124
	  6   6   1   1        -0.0285206699
	  4   7   0   0        -0.0275272904
	  7   4   0   0        -0.0275272904
	  8   8   1   1        -0.0225228813
	  2   2   1   1        -0.0209147213
	  4   4   0   0        -0.0177592416

	SCF energy       (chkpt)              = -171.566152861968760
	Reference energy (file100)            = -171.566152861968703

	Opposite-spin MP2 correlation energy  =   -0.027070804224282
	Same-spin MP2 correlation energy      =   -0.001808316061764
	MP2 correlation energy                =   -0.028879120286046
      * MP2 total energy                      = -171.595031982254739

	Opposite-spin CCSD correlation energy =   -0.036858701778018
	Same-spin CCSD correlation energy     =   -0.002115585876785
	CCSD correlation energy               =   -0.038974287655166
      * CCSD total energy                     = -171.605127149623883


*** tstop() called on ganymede.local at Wed Jan 15 10:58:28 2014
Module time:
	user time   =       0.29 seconds =       0.00 minutes
	system time =       0.32 seconds =       0.01 minutes
	total time  =          2 seconds =       0.03 minutes
Total time:
	user time   =       0.52 seconds =       0.01 minutes
	system time =       0.41 seconds =       0.01 minutes
	total time  =          2 seconds =       0.03 minutes

*** tstart() called on ganymede.local
*** at Wed Jan 15 10:58:28 2014

			**************************
			*                        *
			*        CCTRIPLES       *
			*                        *
			**************************


	Wave function   =    CCSD_T
	Reference wfn   =      UHF

	Nuclear Rep. energy (chkpt)   =   50.420059921858879
	SCF energy          (chkpt)   = -171.566152861968760
	Reference energy    (file100) = -171.566152861968703
	CCSD energy         (file100) =   -0.038974287655166
	Total CCSD energy   (file100) = -171.605127149623883

	Number of ijk index combinations:
	Spin Case AAA: 84
	Spin Case BBB: 84
	Spin Case AAB: 324
	Spin Case ABB: 324
	AAA (T) energy                =    0.000000000000000
	BBB (T) energy                =    0.000000000000000
	AAB (T) energy                =   -0.000105814961366
	ABB (T) energy                =   -0.000105814961366
	(T) energy                    =   -0.000211629922731
      * CCSD(T) total energy          = -171.605338779546599


*** tstop() called on ganymede.local at Wed Jan 15 10:58:28 2014
Module time:
	user time   =       0.03 seconds =       0.00 minutes
	system time =       0.03 seconds =       0.00 minutes
	total time  =          0 seconds =       0.00 minutes
Total time:
	user time   =       0.55 seconds =       0.01 minutes
	system time =       0.44 seconds =       0.01 minutes
	total time  =          2 seconds =       0.03 minutes

  //>>>>>>>>>>>>>>>>>>>>>>>>>>>>>>>>>>>//
  //    Loading displacement 2 of 7    //
  //<<<<<<<<<<<<<<<<<<<<<<<<<<<<<<<<<<<//

*** tstart() called on ganymede.local
*** at Wed Jan 15 10:58:28 2014


         ---------------------------------------------------------
                                   SCF
            by Justin Turney, Rob Parrish, and Andy Simmonett
                              UHF Reference
                        1 Threads,    256 MiB Core
         ---------------------------------------------------------

  ==> Geometry <==

    Molecular point group: c1
    Full point group: Cs

    Geometry (in Bohr), charge = 0, multiplicity = 1:

       Center              X                  Y                   Z       
    ------------   -----------------  -----------------  -----------------
           O          0.000000000000     0.000765112223    -0.116959039525
           H          0.000000000000     1.344156268020     0.923411402641
           F          0.000000000000    -1.345379677504     0.925131746839

  Running in c1 symmetry.


	Rotational constants (cm^-1):
	A =   24.36884    B =    1.17861   C =    1.12424

	Rotational constants (MHz):
	A = 730559.39785    B = 35333.84430   C = 33703.74694
  Nuclear repulsion =   50.348582871961717

  Charge       = 0
  Multiplicity = 1
  Electrons    = 18
  Nalpha       = 9
  Nbeta        = 9

  ==> Algorithm <==

  SCF Algorithm Type is PK.
  DIIS enabled.
  MOM disabled.
  Fractional occupation disabled.
  Guess Type is CORE.
  Energy threshold   = 1.00e-10
  Density threshold  = 1.00e-10
  Integral threshold = 0.00e+00

  ==> Primary Basis <==

  Basis Set: STO-3G
    Number of shells: 7
    Number of basis function: 11
    Number of Cartesian functions: 11
    Spherical Harmonics?: true
    Max angular momentum: 1

  ==> Pre-Iterations <==

   -------------------------------------------------------
    Irrep   Nso     Nmo     Nalpha   Nbeta   Ndocc  Nsocc
   -------------------------------------------------------
     A         11      11       0       0       0       0
   -------------------------------------------------------
    Total      11      11       9       9       9       0
   -------------------------------------------------------

  Starting with a DF guess...

 OEINTS: Wrapper to libmints.
   by Justin Turney

   Calculation information:
      Number of atoms:                   3
      Number of AO shells:               7
      Number of SO shells:               7
      Number of primitives:             21
      Number of atomic orbitals:        11
      Number of basis functions:        11

      Number of irreps:                  1
      Number of functions per irrep: [  11 ]

      Overlap, kinetic, potential, dipole, and quadrupole integrals
        stored in file 35.

  ==> Integral Setup <==

  ==> DFJK: Density-Fitted J/K Matrices <==

    J tasked:                  Yes
    K tasked:                  Yes
    wK tasked:                  No
    OpenMP threads:              1
    Integrals threads:           1
    Memory (MB):               183
    Algorithm:                Core
    Integral Cache:           NONE
    Schwarz Cutoff:          1E-12
    Fitting Condition:       1E-12

   => Auxiliary Basis Set <=

  Basis Set: CC-PVDZ-JKFIT
    Number of shells: 57
    Number of basis function: 163
    Number of Cartesian functions: 187
    Spherical Harmonics?: true
    Max angular momentum: 3

  Minimum eigenvalue in the overlap matrix is 1.6367356315E-01.
  Using Symmetric Orthogonalization.
  SCF Guess: Core (One-Electron) Hamiltonian.

  ==> Iterations <==

                           Total Energy        Delta E     RMS |[F,P]|

   @DF-UHF iter   1:  -167.18104568167135   -1.67181e+02   1.15941e-01 
   @DF-UHF iter   2:  -171.11010997563923   -3.92906e+00   8.18333e-02 DIIS
   @DF-UHF iter   3:  -171.55651168901943   -4.46402e-01   1.34105e-02 DIIS
   @DF-UHF iter   4:  -171.57359655621545   -1.70849e-02   2.94323e-03 DIIS
   @DF-UHF iter   5:  -171.57447935769542   -8.82801e-04   4.40810e-04 DIIS
   @DF-UHF iter   6:  -171.57450367327053   -2.43156e-05   5.85315e-05 DIIS
   @DF-UHF iter   7:  -171.57450410390098   -4.30630e-07   6.02150e-06 DIIS
   @DF-UHF iter   8:  -171.57450410835801   -4.45704e-09   7.85717e-07 DIIS
   @DF-UHF iter   9:  -171.57450410841582   -5.78098e-11   6.35084e-08 DIIS
   @DF-UHF iter  10:  -171.57450410841611   -2.84217e-13   5.86056e-09 DIIS
   @DF-UHF iter  11:  -171.57450410841597    1.42109e-13   8.08868e-10 DIIS
   @DF-UHF iter  12:  -171.57450410841594    2.84217e-14   4.74267e-11 DIIS

  DF guess converged.

  ==> Integral Setup <==

 MINTS: Wrapper to libmints.
   by Justin Turney

   Calculation information:
      Number of atoms:                   3
      Number of AO shells:               7
      Number of SO shells:               7
      Number of primitives:             21
      Number of atomic orbitals:        11
      Number of basis functions:        11

      Number of irreps:                  1
      Integral cutoff                 0.00e+00
      Number of functions per irrep: [  11 ]

      Overlap, kinetic, potential, dipole, and quadrupole integrals
        stored in file 35.

      Computing two-electron integrals...done
      Computed 1283 non-zero two-electron integrals.
        Stored in file 33.

	Batch   1 pq = [       0,      66] index = [             0,2211]
  ==> DiskJK: Disk-Based J/K Matrices <==

    J tasked:                  Yes
    K tasked:                  Yes
    wK tasked:                  No
    Memory (MB):               183
    Schwarz Cutoff:          1E-12

   @UHF iter  13:  -171.57490175773196   -3.97649e-04   1.31428e-05 DIIS
   @UHF iter  14:  -171.57490177929100   -2.15590e-08   3.22819e-06 DIIS
   @UHF iter  15:  -171.57490178093050   -1.63951e-09   7.23212e-07 DIIS
   @UHF iter  16:  -171.57490178100500   -7.44933e-11   6.10835e-08 DIIS
   @UHF iter  17:  -171.57490178100539   -3.97904e-13   5.92950e-09 DIIS
   @UHF iter  18:  -171.57490178100551   -1.13687e-13   5.93442e-10 DIIS
   @UHF iter  19:  -171.57490178100525    2.55795e-13   8.15523e-11 DIIS

  ==> Post-Iterations <==

   @Spin Contamination Metric:  -3.552713679E-15
   @S^2 Expected:                0.000000000E+00
   @S^2 Observed:               -3.552713679E-15
   @S   Expected:                0.000000000E+00
   @S   Observed:                0.000000000E+00

	Orbital Energies (a.u.)
	-----------------------

	Alpha Occupied:                                                       

	   1A    -26.126894     2A    -20.490705     3A     -2.114621  
	   4A     -1.120656     5A     -0.928121     6A     -0.901056  
	   7A     -0.758474     8A     -0.330044     9A     -0.245662  

	Alpha Virtual:                                                        

	  10A      0.672207    11A      1.458666  

	Beta Occupied:                                                        

	   1A    -26.126894     2A    -20.490705     3A     -2.114621  
	   4A     -1.120656     5A     -0.928121     6A     -0.901056  
	   7A     -0.758474     8A     -0.330044     9A     -0.245662  

	Beta Virtual:                                                         

	  10A      0.672207    11A      1.458666  

	Final Occupation by Irrep:
	          A 
	DOCC [     9 ]
	SOCC [     0 ]

  Energy converged.

  @UHF Final Energy:  -171.57490178100525

   => Energetics <=

    Nuclear Repulsion Energy =             50.3485828719617174
    One-Electron Energy =                -337.8145047060347679
    Two-Electron Energy =                 115.8910200530678054
    DFT Exchange-Correlation Energy =       0.0000000000000000
    Empirical Dispersion Energy =           0.0000000000000000
    Total Energy =                       -171.5749017810052806



Properties will be evaluated at   0.000000,   0.000000,   0.000000 Bohr
  ==> Properties <==


Properties computed using the SCF density density matrix
  Nuclear Dipole Moment: (a.u.)
     X:     0.0000      Y:   -10.7581      Z:     8.3139

  Electronic Dipole Moment: (a.u.)
     X:    -0.0000      Y:    11.0355      Z:    -7.9121

  Dipole Moment: (a.u.)
     X:    -0.0000      Y:     0.2774      Z:     0.4018     Total:     0.4883

  Dipole Moment: (Debye)
     X:    -0.0000      Y:     0.7050      Z:     1.0213     Total:     1.2410


  Saving occupied orbitals to File 180.

*** tstop() called on ganymede.local at Wed Jan 15 10:58:28 2014
Module time:
	user time   =       0.19 seconds =       0.00 minutes
	system time =       0.01 seconds =       0.00 minutes
	total time  =          0 seconds =       0.00 minutes
Total time:
	user time   =       0.77 seconds =       0.01 minutes
	system time =       0.45 seconds =       0.01 minutes
	total time  =          2 seconds =       0.03 minutes

*** tstart() called on ganymede.local
*** at Wed Jan 15 10:58:28 2014


	**************************************************
	* TRANSQT2: Program to transform integrals from  *
	*           the SO basis to the MO basis.        *
	*                                                *
	*            Daniel, David, & Justin             *
	**************************************************


	Input parameters:
	-----------------
	Wave function   =	CCSD_T
	Backtransform   =	No
	Print Level     =	1
	Print TEIs      =	No
	Reference wfn   =	UHF
	Derivative      =	None
	Delete TEI File =	Yes
	Memory (Mbytes) =	256.0
	Cache Level     =	2
	Cache Type      =	LRU
	Chkpt Parameters:
	--------------------
	Number of irreps     = 1
	Number of SOs        = 11
	Number of MOs        = 11
	Number of active MOs = 11

	Label	# SOs	# FZDC	# DOCC	# SOCC	# VIRT	# FZVR
	-----	-----	------	------	------	------	------
	 A	   11	    0	    9	    0	    2	    0

	Nuclear Rep. energy (chkpt) =     50.34858287196172
	SCF energy          (chkpt) =   -171.57490178100525

	Presorting SO-basis two-electron integrals.
	Sorting File: SO Ints (pq,rs) nbuckets = 1
	Frozen-core energy =    0.000000000000000
	Starting AA/AB first half-transformation.
	Sorting AA/AB half-transformed integrals.
	Starting AA second half-transformation.
	Starting AB second half-transformation.
	Starting BB first half-transformation.
	Sorting BB half-transformed integrals.
	Starting BB second half-transformation.
	Two-electron integral transformation complete.

*** tstop() called on ganymede.local at Wed Jan 15 10:58:28 2014
Module time:
	user time   =       0.01 seconds =       0.00 minutes
	system time =       0.01 seconds =       0.00 minutes
	total time  =          0 seconds =       0.00 minutes
Total time:
	user time   =       0.78 seconds =       0.01 minutes
	system time =       0.46 seconds =       0.01 minutes
	total time  =          2 seconds =       0.03 minutes

*** tstart() called on ganymede.local
*** at Wed Jan 15 10:58:28 2014


			**************************
			*                        *
			*         CCSORT         *
			*                        *
			**************************


	Input parameters:
	-----------------
	Wave function   =	CCSD_T
	Reference wfn   =	UHF
	Derivative      =	None
	Memory (Mbytes) =	256.0
	AO Basis        =	NONE
	Make (ab|cd)    =	True
	Make unpacked (ab|cd) =	True
	Cache Level     =	2
	Cache Type      =	LRU
	Local CC        =     No


	Chkpt Parameters:
	--------------------
	Number of irreps     = 1
	Number of MOs        = 11
	Number of active MOs = 11

	Label	# MOs	# FZDC	# DOCC	# SOCC	# VIRT	# FZVR
	-----	-----	------	------	------	------	------
	 A	   11	    0	    9	    0	    2	    0

	Nuclear Rep. energy (chkpt) =     50.34858287196172
	SCF energy          (chkpt) =   -171.57490178100525

	Size of irrep 0 of <AB|CD> integrals:      0.000 (MW) /      0.000 (MB)
	Total:                                     0.000 (MW) /      0.000 (MB)

	Size of irrep 0 of <ab|cd> integrals:      0.000 (MW) /      0.000 (MB)
	Total:                                     0.000 (MW) /      0.000 (MB)

	Size of irrep 0 of <Ab|Cd> integrals:      0.000 (MW) /      0.000 (MB)
	Total:                                     0.000 (MW) /      0.000 (MB)

	Size of irrep 0 of <IA|BC> integrals:      0.000 (MW) /      0.001 (MB)
	Total:                                     0.000 (MW) /      0.001 (MB)

	Size of irrep 0 of <ia|bc> integrals:      0.000 (MW) /      0.001 (MB)
	Total:                                     0.000 (MW) /      0.001 (MB)

	Size of irrep 0 of <Ia|Bc> integrals:      0.000 (MW) /      0.001 (MB)
	Total:                                     0.000 (MW) /      0.001 (MB)

	Size of irrep 0 of <iA|bC> integrals:      0.000 (MW) /      0.001 (MB)
	Total:                                     0.000 (MW) /      0.001 (MB)

	Size of irrep 0 of tIjAb amplitudes:       0.000 (MW) /      0.003 (MB)
	Total:                                     0.000 (MW) /      0.003 (MB)


	Sorting File: A <IJ|KL> nbuckets = 1
	Sorting File: B <AB|CD> nbuckets = 1
	Sorting File: C <IA|JB> nbuckets = 1
	Sorting File: D <IJ|AB> nbuckets = 1
	Sorting File: E <AI|JK> nbuckets = 1
	Sorting File: F <IA|BC> nbuckets = 1
	Sorting File: F <AI|BC> nbuckets = 1
	Sorting File: A <ij|kl> nbuckets = 1
	Sorting File: B <ab|cd> nbuckets = 1
	Sorting File: C <ia|jb> nbuckets = 1
	Sorting File: D <ij|ab> nbuckets = 1
	Sorting File: E <ai|jk> nbuckets = 1
	Sorting File: F <ia|bc> nbuckets = 1
	Sorting File: F <ai|bc> nbuckets = 1
	Sorting File: A <Ij|Kl> nbuckets = 1
	Sorting File: B <Ab|Cd> nbuckets = 1
	Sorting File: C <Ia|Jb> nbuckets = 1
	Sorting File: C <Ai|Bj> nbuckets = 1
	Sorting File: D <Ij|Ab> nbuckets = 1
	Sorting File: E <Ai|Jk> nbuckets = 1
	Sorting File: E <Ij|Ka> nbuckets = 1
	Sorting File: F <Ia|Bc> nbuckets = 1
	Sorting File: F <aI|bC> nbuckets = 1
	Sorting File: F <Ab|Ci> nbuckets = 1
	Sorting File: F <Ai|Bc> nbuckets = 1
	One-electron energy          =   -337.81450470655460
	Two-electron (AA) energy     =     24.15465096507542
	Two-electron (BB) energy     =     24.15465096507542
	Two-electron (AB) energy     =     67.58171812343663
	Two-electron energy          =    115.89102005358748
	Frozen-core energy (transqt) =      0.00000000000000
	Reference energy             =   -171.57490178100542

*** tstop() called on ganymede.local at Wed Jan 15 10:58:29 2014
Module time:
	user time   =       0.03 seconds =       0.00 minutes
	system time =       0.06 seconds =       0.00 minutes
	total time  =          1 seconds =       0.02 minutes
Total time:
	user time   =       0.81 seconds =       0.01 minutes
	system time =       0.52 seconds =       0.01 minutes
	total time  =          3 seconds =       0.05 minutes

*** tstart() called on ganymede.local
*** at Wed Jan 15 10:58:29 2014

			**************************
			*                        *
			*        CCENERGY        *
			*                        *
			**************************

	Nuclear Rep. energy (chkpt)   =   50.348582871961717
	SCF energy          (chkpt)   = -171.574901781005252
	Reference energy    (file100) = -171.574901781005423

	Input parameters:
	-----------------
	Wave function   =   CCSD_T
	Reference wfn   =     UHF
	Memory (Mbytes) =     256.0
	Maxiter         =     50
	R_Convergence   =     1.0e-13
	E_Convergence   =     1.0e-08
	Restart         =     No
	DIIS            =     Yes
	AO Basis        =     NONE
	ABCD            =     NEW
	Cache Level     =     2
	Cache Type      =     LRU
	Print Level     =     1
	Num. of threads =     1
	# Amps to Print =     10
	Print MP2 Amps? =     No
	Analyze T2 Amps =     No
	Print Pair Ener =     No
	Local CC        =     No
	SCS-MP2         =     False
	SCSN-MP2        =     False
	SCS-CCSD        =     False

	            Solving CC Amplitude Equations
	            ------------------------------
  Iter             Energy              RMS        T1Diag      D1Diag    New D1Diag    D2Diag
  ----     ---------------------    ---------   ----------  ----------  ----------   --------
     0        -0.028840387682303    5.703e-14    0.000000    0.000000    0.000000    0.000000
     1        -0.035621706683724    2.862e-02    0.002697    0.000000    0.000000    0.000000
     2        -0.038877526450152    1.128e-02    0.004673    0.000000    0.000000    0.000000
     3        -0.038913416675174    2.093e-03    0.005173    0.000000    0.000000    0.000000
     4        -0.038894712228995    6.240e-04    0.005319    0.000000    0.000000    0.000000
     5        -0.038898599537754    1.371e-04    0.005357    0.000000    0.000000    0.000000
     6        -0.038897965274509    1.372e-05    0.005358    0.000000    0.000000    0.000000
     7        -0.038898043148068    1.898e-06    0.005358    0.000000    0.000000    0.000000
     8        -0.038898036859998    4.204e-07    0.005358    0.000000    0.000000    0.000000
     9        -0.038898036244917    8.862e-08    0.005358    0.000000    0.000000    0.000000
    10        -0.038898036111052    1.570e-08    0.005358    0.000000    0.000000    0.000000
    11        -0.038898036272031    3.055e-09    0.005358    0.000000    0.000000    0.000000
    12        -0.038898036241640    5.881e-10    0.005358    0.000000    0.000000    0.000000
    13        -0.038898036235992    8.329e-11    0.005358    0.000000    0.000000    0.000000
    14        -0.038898036235035    2.073e-11    0.005358    0.000000    0.000000    0.000000
    15        -0.038898036235356    5.399e-12    0.005358    0.000000    0.000000    0.000000
    16        -0.038898036235487    1.375e-12    0.005358    0.000000    0.000000    0.000000
    17        -0.038898036235491    2.713e-13    0.005358    0.000000    0.000000    0.000000
    18        -0.038898036235491    5.917e-14    0.005358    0.000000    0.000000    0.000000

	Iterations converged.


	Largest TIA Amplitudes:
	          7   0         0.0157361941
	          6   0        -0.0019647777
	          4   1         0.0017557381
	          7   1         0.0012570702
	          3   1         0.0010700277
	          3   0         0.0006717116
	          4   0        -0.0006505985
	          6   1        -0.0004028154
	          2   0        -0.0002480286
	          2   1         0.0001464463

	Largest Tia Amplitudes:
	          7   0         0.0157361941
	          6   0        -0.0019647777
	          4   1         0.0017557381
	          7   1         0.0012570702
	          3   1         0.0010700277
	          3   0         0.0006717116
	          4   0        -0.0006505985
	          6   1        -0.0004028154
	          2   0        -0.0002480286
	          2   1         0.0001464463

	Largest TIJAB Amplitudes:
	  6   4   1   0        -0.0101621579
	  6   3   1   0         0.0083987650
	  7   6   1   0        -0.0064851926
	  4   2   1   0        -0.0050069919
	  3   2   1   0         0.0047140838
	  7   2   1   0         0.0045657406
	  4   3   1   0        -0.0039871171
	  7   3   1   0         0.0019629823
	  7   4   1   0         0.0010033935
	  4   1   1   0        -0.0003668767

	Largest Tijab Amplitudes:
	  6   4   1   0        -0.0101621579
	  6   3   1   0         0.0083987650
	  7   6   1   0        -0.0064851926
	  4   2   1   0        -0.0050069919
	  3   2   1   0         0.0047140838
	  7   2   1   0         0.0045657406
	  4   3   1   0        -0.0039871171
	  7   3   1   0         0.0019629823
	  7   4   1   0         0.0010033935
	  4   1   1   0        -0.0003668767

	Largest TIjAb Amplitudes:
	  7   7   0   0        -0.0688926465
	  3   3   0   0        -0.0322135459
	  6   6   1   1        -0.0286931464
	  3   7   0   0         0.0286426299
	  7   3   0   0         0.0286426299
	  4   7   0   0        -0.0275642533
	  7   4   0   0        -0.0275642533
	  8   8   1   1        -0.0225804664
	  2   2   1   1        -0.0209629417
	  4   4   0   0        -0.0178650362

	SCF energy       (chkpt)              = -171.574901781005252
	Reference energy (file100)            = -171.574901781005423

	Opposite-spin MP2 correlation energy  =   -0.027041046011187
	Same-spin MP2 correlation energy      =   -0.001799341671116
	MP2 correlation energy                =   -0.028840387682303
      * MP2 total energy                      = -171.603742168687717

	Opposite-spin CCSD correlation energy =   -0.036794542832772
	Same-spin CCSD correlation energy     =   -0.002103493402369
	CCSD correlation energy               =   -0.038898036235491
      * CCSD total energy                     = -171.613799817240903


*** tstop() called on ganymede.local at Wed Jan 15 10:58:32 2014
Module time:
	user time   =       0.31 seconds =       0.01 minutes
	system time =       0.36 seconds =       0.01 minutes
	total time  =          3 seconds =       0.05 minutes
Total time:
	user time   =       1.13 seconds =       0.02 minutes
	system time =       0.88 seconds =       0.01 minutes
	total time  =          6 seconds =       0.10 minutes

*** tstart() called on ganymede.local
*** at Wed Jan 15 10:58:32 2014

			**************************
			*                        *
			*        CCTRIPLES       *
			*                        *
			**************************


	Wave function   =    CCSD_T
	Reference wfn   =      UHF

	Nuclear Rep. energy (chkpt)   =   50.348582871961717
	SCF energy          (chkpt)   = -171.574901781005252
	Reference energy    (file100) = -171.574901781005423
	CCSD energy         (file100) =   -0.038898036235491
	Total CCSD energy   (file100) = -171.613799817240903

	Number of ijk index combinations:
	Spin Case AAA: 84
	Spin Case BBB: 84
	Spin Case AAB: 324
	Spin Case ABB: 324
	AAA (T) energy                =    0.000000000000000
	BBB (T) energy                =    0.000000000000000
	AAB (T) energy                =   -0.000104499218694
	ABB (T) energy                =   -0.000104499218694
	(T) energy                    =   -0.000208998437389
      * CCSD(T) total energy          = -171.614008815678289


*** tstop() called on ganymede.local at Wed Jan 15 10:58:32 2014
Module time:
	user time   =       0.02 seconds =       0.00 minutes
	system time =       0.04 seconds =       0.00 minutes
	total time  =          0 seconds =       0.00 minutes
Total time:
	user time   =       1.15 seconds =       0.02 minutes
	system time =       0.92 seconds =       0.02 minutes
	total time  =          6 seconds =       0.10 minutes

  //>>>>>>>>>>>>>>>>>>>>>>>>>>>>>>>>>>>//
  //    Loading displacement 3 of 7    //
  //<<<<<<<<<<<<<<<<<<<<<<<<<<<<<<<<<<<//

*** tstart() called on ganymede.local
*** at Wed Jan 15 10:58:32 2014


         ---------------------------------------------------------
                                   SCF
            by Justin Turney, Rob Parrish, and Andy Simmonett
                              UHF Reference
                        1 Threads,    256 MiB Core
         ---------------------------------------------------------

  ==> Geometry <==

    Molecular point group: c1
    Full point group: Cs

    Geometry (in Bohr), charge = 0, multiplicity = 1:

       Center              X                  Y                   Z       
    ------------   -----------------  -----------------  -----------------
           O          0.000000000000     0.000000000000    -0.117078595679
           H          0.000000000000     1.344767972762     0.929061137629
           F          0.000000000000    -1.344767972762     0.924932695696

  Running in c1 symmetry.


	Rotational constants (cm^-1):
	A =   24.20023    B =    1.17960   C =    1.12477

	Rotational constants (MHz):
	A = 725504.75241    B = 35363.49595   C = 33719.87782
  Nuclear repulsion =   50.364070043106842

  Charge       = 0
  Multiplicity = 1
  Electrons    = 18
  Nalpha       = 9
  Nbeta        = 9

  ==> Algorithm <==

  SCF Algorithm Type is PK.
  DIIS enabled.
  MOM disabled.
  Fractional occupation disabled.
  Guess Type is CORE.
  Energy threshold   = 1.00e-10
  Density threshold  = 1.00e-10
  Integral threshold = 0.00e+00

  ==> Primary Basis <==

  Basis Set: STO-3G
    Number of shells: 7
    Number of basis function: 11
    Number of Cartesian functions: 11
    Spherical Harmonics?: true
    Max angular momentum: 1

  ==> Pre-Iterations <==

   -------------------------------------------------------
    Irrep   Nso     Nmo     Nalpha   Nbeta   Ndocc  Nsocc
   -------------------------------------------------------
     A         11      11       0       0       0       0
   -------------------------------------------------------
    Total      11      11       9       9       9       0
   -------------------------------------------------------

  Starting with a DF guess...

 OEINTS: Wrapper to libmints.
   by Justin Turney

   Calculation information:
      Number of atoms:                   3
      Number of AO shells:               7
      Number of SO shells:               7
      Number of primitives:             21
      Number of atomic orbitals:        11
      Number of basis functions:        11

      Number of irreps:                  1
      Number of functions per irrep: [  11 ]

      Overlap, kinetic, potential, dipole, and quadrupole integrals
        stored in file 35.

  ==> Integral Setup <==

  ==> DFJK: Density-Fitted J/K Matrices <==

    J tasked:                  Yes
    K tasked:                  Yes
    wK tasked:                  No
    OpenMP threads:              1
    Integrals threads:           1
    Memory (MB):               183
    Algorithm:                Core
    Integral Cache:           NONE
    Schwarz Cutoff:          1E-12
    Fitting Condition:       1E-12

   => Auxiliary Basis Set <=

  Basis Set: CC-PVDZ-JKFIT
    Number of shells: 57
    Number of basis function: 163
    Number of Cartesian functions: 187
    Spherical Harmonics?: true
    Max angular momentum: 3

  Minimum eigenvalue in the overlap matrix is 1.6332770279E-01.
  Using Symmetric Orthogonalization.
  SCF Guess: Core (One-Electron) Hamiltonian.

  ==> Iterations <==

                           Total Energy        Delta E     RMS |[F,P]|

   @DF-UHF iter   1:  -167.17529293008360   -1.67175e+02   1.15878e-01 
   @DF-UHF iter   2:  -171.09795551662512   -3.92266e+00   8.24785e-02 DIIS
   @DF-UHF iter   3:  -171.55342679843912   -4.55471e-01   1.35470e-02 DIIS
   @DF-UHF iter   4:  -171.57088000785683   -1.74532e-02   2.97807e-03 DIIS
   @DF-UHF iter   5:  -171.57178331273101   -9.03305e-04   4.50758e-04 DIIS
   @DF-UHF iter   6:  -171.57180867169598   -2.53590e-05   5.92562e-05 DIIS
   @DF-UHF iter   7:  -171.57180911296555   -4.41270e-07   6.16361e-06 DIIS
   @DF-UHF iter   8:  -171.57180911765764   -4.69208e-09   8.02538e-07 DIIS
   @DF-UHF iter   9:  -171.57180911771803   -6.03961e-11   6.42923e-08 DIIS
   @DF-UHF iter  10:  -171.57180911771835   -3.12639e-13   5.97487e-09 DIIS
   @DF-UHF iter  11:  -171.57180911771837   -2.84217e-14   8.32222e-10 DIIS
   @DF-UHF iter  12:  -171.57180911771826    1.13687e-13   4.88444e-11 DIIS

  DF guess converged.

  ==> Integral Setup <==

 MINTS: Wrapper to libmints.
   by Justin Turney

   Calculation information:
      Number of atoms:                   3
      Number of AO shells:               7
      Number of SO shells:               7
      Number of primitives:             21
      Number of atomic orbitals:        11
      Number of basis functions:        11

      Number of irreps:                  1
      Integral cutoff                 0.00e+00
      Number of functions per irrep: [  11 ]

      Overlap, kinetic, potential, dipole, and quadrupole integrals
        stored in file 35.

      Computing two-electron integrals...done
      Computed 1272 non-zero two-electron integrals.
        Stored in file 33.

	Batch   1 pq = [       0,      66] index = [             0,2211]
  ==> DiskJK: Disk-Based J/K Matrices <==

    J tasked:                  Yes
    K tasked:                  Yes
    wK tasked:                  No
    Memory (MB):               183
    Schwarz Cutoff:          1E-12

   @UHF iter  13:  -171.57220669054763   -3.97573e-04   1.31438e-05 DIIS
   @UHF iter  14:  -171.57220671218673   -2.16391e-08   3.22808e-06 DIIS
   @UHF iter  15:  -171.57220671382996   -1.64323e-09   7.25645e-07 DIIS
   @UHF iter  16:  -171.57220671390510   -7.51470e-11   6.16061e-08 DIIS
   @UHF iter  17:  -171.57220671390559   -4.83169e-13   6.02413e-09 DIIS
   @UHF iter  18:  -171.57220671390562   -2.84217e-14   6.01869e-10 DIIS
   @UHF iter  19:  -171.57220671390547    1.42109e-13   8.24816e-11 DIIS

  ==> Post-Iterations <==

   @Spin Contamination Metric:   1.776356839E-15
   @S^2 Expected:                0.000000000E+00
   @S^2 Observed:                1.776356839E-15
   @S   Expected:                0.000000000E+00
   @S   Observed:                0.000000000E+00

	Orbital Energies (a.u.)
	-----------------------

	Alpha Occupied:                                                       

	   1A    -26.127700     2A    -20.491576     3A     -2.116045  
	   4A     -1.119681     5A     -0.928830     6A     -0.901975  
	   7A     -0.758622     8A     -0.329820     9A     -0.245476  

	Alpha Virtual:                                                        

	  10A      0.669303    11A      1.460858  

	Beta Occupied:                                                        

	   1A    -26.127700     2A    -20.491576     3A     -2.116045  
	   4A     -1.119681     5A     -0.928830     6A     -0.901975  
	   7A     -0.758622     8A     -0.329820     9A     -0.245476  

	Beta Virtual:                                                         

	  10A      0.669303    11A      1.460858  

	Final Occupation by Irrep:
	          A 
	DOCC [     9 ]
	SOCC [     0 ]

  Energy converged.

  @UHF Final Energy:  -171.57220671390547

   => Energetics <=

    Nuclear Repulsion Energy =             50.3640700431068424
    One-Electron Energy =                -337.8331044682019524
    Two-Electron Energy =                 115.8968277111896441
    DFT Exchange-Correlation Energy =       0.0000000000000000
    Empirical Dispersion Energy =           0.0000000000000000
    Total Energy =                       -171.5722067139054730



Properties will be evaluated at   0.000000,   0.000000,   0.000000 Bohr
  ==> Properties <==


Properties computed using the SCF density density matrix
  Nuclear Dipole Moment: (a.u.)
     X:     0.0000      Y:   -10.7581      Z:     8.3168

  Electronic Dipole Moment: (a.u.)
     X:     0.0000      Y:    11.0321      Z:    -7.9156

  Dipole Moment: (a.u.)
     X:     0.0000      Y:     0.2740      Z:     0.4012     Total:     0.4858

  Dipole Moment: (Debye)
     X:     0.0000      Y:     0.6963      Z:     1.0198     Total:     1.2349


  Saving occupied orbitals to File 180.

*** tstop() called on ganymede.local at Wed Jan 15 10:58:32 2014
Module time:
	user time   =       0.19 seconds =       0.00 minutes
	system time =       0.01 seconds =       0.00 minutes
	total time  =          0 seconds =       0.00 minutes
Total time:
	user time   =       1.37 seconds =       0.02 minutes
	system time =       0.93 seconds =       0.02 minutes
	total time  =          6 seconds =       0.10 minutes

*** tstart() called on ganymede.local
*** at Wed Jan 15 10:58:32 2014


	**************************************************
	* TRANSQT2: Program to transform integrals from  *
	*           the SO basis to the MO basis.        *
	*                                                *
	*            Daniel, David, & Justin             *
	**************************************************


	Input parameters:
	-----------------
	Wave function   =	CCSD_T
	Backtransform   =	No
	Print Level     =	1
	Print TEIs      =	No
	Reference wfn   =	UHF
	Derivative      =	None
	Delete TEI File =	Yes
	Memory (Mbytes) =	256.0
	Cache Level     =	2
	Cache Type      =	LRU
	Chkpt Parameters:
	--------------------
	Number of irreps     = 1
	Number of SOs        = 11
	Number of MOs        = 11
	Number of active MOs = 11

	Label	# SOs	# FZDC	# DOCC	# SOCC	# VIRT	# FZVR
	-----	-----	------	------	------	------	------
	 A	   11	    0	    9	    0	    2	    0

	Nuclear Rep. energy (chkpt) =     50.36407004310684
	SCF energy          (chkpt) =   -171.57220671390547

	Presorting SO-basis two-electron integrals.
	Sorting File: SO Ints (pq,rs) nbuckets = 1
	Frozen-core energy =    0.000000000000000
	Starting AA/AB first half-transformation.
	Sorting AA/AB half-transformed integrals.
	Starting AA second half-transformation.
	Starting AB second half-transformation.
	Starting BB first half-transformation.
	Sorting BB half-transformed integrals.
	Starting BB second half-transformation.
	Two-electron integral transformation complete.

*** tstop() called on ganymede.local at Wed Jan 15 10:58:32 2014
Module time:
	user time   =       0.01 seconds =       0.00 minutes
	system time =       0.01 seconds =       0.00 minutes
	total time  =          0 seconds =       0.00 minutes
Total time:
	user time   =       1.38 seconds =       0.02 minutes
	system time =       0.94 seconds =       0.02 minutes
	total time  =          6 seconds =       0.10 minutes

*** tstart() called on ganymede.local
*** at Wed Jan 15 10:58:32 2014


			**************************
			*                        *
			*         CCSORT         *
			*                        *
			**************************


	Input parameters:
	-----------------
	Wave function   =	CCSD_T
	Reference wfn   =	UHF
	Derivative      =	None
	Memory (Mbytes) =	256.0
	AO Basis        =	NONE
	Make (ab|cd)    =	True
	Make unpacked (ab|cd) =	True
	Cache Level     =	2
	Cache Type      =	LRU
	Local CC        =     No


	Chkpt Parameters:
	--------------------
	Number of irreps     = 1
	Number of MOs        = 11
	Number of active MOs = 11

	Label	# MOs	# FZDC	# DOCC	# SOCC	# VIRT	# FZVR
	-----	-----	------	------	------	------	------
	 A	   11	    0	    9	    0	    2	    0

	Nuclear Rep. energy (chkpt) =     50.36407004310684
	SCF energy          (chkpt) =   -171.57220671390547

	Size of irrep 0 of <AB|CD> integrals:      0.000 (MW) /      0.000 (MB)
	Total:                                     0.000 (MW) /      0.000 (MB)

	Size of irrep 0 of <ab|cd> integrals:      0.000 (MW) /      0.000 (MB)
	Total:                                     0.000 (MW) /      0.000 (MB)

	Size of irrep 0 of <Ab|Cd> integrals:      0.000 (MW) /      0.000 (MB)
	Total:                                     0.000 (MW) /      0.000 (MB)

	Size of irrep 0 of <IA|BC> integrals:      0.000 (MW) /      0.001 (MB)
	Total:                                     0.000 (MW) /      0.001 (MB)

	Size of irrep 0 of <ia|bc> integrals:      0.000 (MW) /      0.001 (MB)
	Total:                                     0.000 (MW) /      0.001 (MB)

	Size of irrep 0 of <Ia|Bc> integrals:      0.000 (MW) /      0.001 (MB)
	Total:                                     0.000 (MW) /      0.001 (MB)

	Size of irrep 0 of <iA|bC> integrals:      0.000 (MW) /      0.001 (MB)
	Total:                                     0.000 (MW) /      0.001 (MB)

	Size of irrep 0 of tIjAb amplitudes:       0.000 (MW) /      0.003 (MB)
	Total:                                     0.000 (MW) /      0.003 (MB)


	Sorting File: A <IJ|KL> nbuckets = 1
	Sorting File: B <AB|CD> nbuckets = 1
	Sorting File: C <IA|JB> nbuckets = 1
	Sorting File: D <IJ|AB> nbuckets = 1
	Sorting File: E <AI|JK> nbuckets = 1
	Sorting File: F <IA|BC> nbuckets = 1
	Sorting File: F <AI|BC> nbuckets = 1
	Sorting File: A <ij|kl> nbuckets = 1
	Sorting File: B <ab|cd> nbuckets = 1
	Sorting File: C <ia|jb> nbuckets = 1
	Sorting File: D <ij|ab> nbuckets = 1
	Sorting File: E <ai|jk> nbuckets = 1
	Sorting File: F <ia|bc> nbuckets = 1
	Sorting File: F <ai|bc> nbuckets = 1
	Sorting File: A <Ij|Kl> nbuckets = 1
	Sorting File: B <Ab|Cd> nbuckets = 1
	Sorting File: C <Ia|Jb> nbuckets = 1
	Sorting File: C <Ai|Bj> nbuckets = 1
	Sorting File: D <Ij|Ab> nbuckets = 1
	Sorting File: E <Ai|Jk> nbuckets = 1
	Sorting File: E <Ij|Ka> nbuckets = 1
	Sorting File: F <Ia|Bc> nbuckets = 1
	Sorting File: F <aI|bC> nbuckets = 1
	Sorting File: F <Ab|Ci> nbuckets = 1
	Sorting File: F <Ai|Bc> nbuckets = 1
	One-electron energy          =   -337.83310446873361
	Two-electron (AA) energy     =     24.15628408114968
	Two-electron (BB) energy     =     24.15628408114968
	Two-electron (AB) energy     =     67.58425954942203
	Two-electron energy          =    115.89682771172139
	Frozen-core energy (transqt) =      0.00000000000000
	Reference energy             =   -171.57220671390536

*** tstop() called on ganymede.local at Wed Jan 15 10:58:33 2014
Module time:
	user time   =       0.03 seconds =       0.00 minutes
	system time =       0.06 seconds =       0.00 minutes
	total time  =          1 seconds =       0.02 minutes
Total time:
	user time   =       1.41 seconds =       0.02 minutes
	system time =       1.00 seconds =       0.02 minutes
	total time  =          7 seconds =       0.12 minutes

*** tstart() called on ganymede.local
*** at Wed Jan 15 10:58:33 2014

			**************************
			*                        *
			*        CCENERGY        *
			*                        *
			**************************

	Nuclear Rep. energy (chkpt)   =   50.364070043106842
	SCF energy          (chkpt)   = -171.572206713905473
	Reference energy    (file100) = -171.572206713905359

	Input parameters:
	-----------------
	Wave function   =   CCSD_T
	Reference wfn   =     UHF
	Memory (Mbytes) =     256.0
	Maxiter         =     50
	R_Convergence   =     1.0e-13
	E_Convergence   =     1.0e-08
	Restart         =     No
	DIIS            =     Yes
	AO Basis        =     NONE
	ABCD            =     NEW
	Cache Level     =     2
	Cache Type      =     LRU
	Print Level     =     1
	Num. of threads =     1
	# Amps to Print =     10
	Print MP2 Amps? =     No
	Analyze T2 Amps =     No
	Print Pair Ener =     No
	Local CC        =     No
	SCS-MP2         =     False
	SCSN-MP2        =     False
	SCS-CCSD        =     False

	            Solving CC Amplitude Equations
	            ------------------------------
  Iter             Energy              RMS        T1Diag      D1Diag    New D1Diag    D2Diag
  ----     ---------------------    ---------   ----------  ----------  ----------   --------
     0        -0.028932401428407    5.917e-14    0.000000    0.000000    0.000000    0.000000
     1        -0.035748730003841    2.881e-02    0.002713    0.000000    0.000000    0.000000
     2        -0.039036495328713    1.138e-02    0.004705    0.000000    0.000000    0.000000
     3        -0.039072899131738    2.113e-03    0.005209    0.000000    0.000000    0.000000
     4        -0.039054084307276    6.323e-04    0.005358    0.000000    0.000000    0.000000
     5        -0.039058087569189    1.390e-04    0.005397    0.000000    0.000000    0.000000
     6        -0.039057429455560    1.396e-05    0.005398    0.000000    0.000000    0.000000
     7        -0.039057511479498    1.910e-06    0.005398    0.000000    0.000000    0.000000
     8        -0.039057504738823    4.203e-07    0.005398    0.000000    0.000000    0.000000
     9        -0.039057504204686    8.900e-08    0.005398    0.000000    0.000000    0.000000
    10        -0.039057504079332    1.578e-08    0.005398    0.000000    0.000000    0.000000
    11        -0.039057504231517    3.073e-09    0.005398    0.000000    0.000000    0.000000
    12        -0.039057504197785    5.939e-10    0.005398    0.000000    0.000000    0.000000
    13        -0.039057504192539    8.238e-11    0.005398    0.000000    0.000000    0.000000
    14        -0.039057504191768    2.058e-11    0.005398    0.000000    0.000000    0.000000
    15        -0.039057504192112    5.324e-12    0.005398    0.000000    0.000000    0.000000
    16        -0.039057504192232    1.358e-12    0.005398    0.000000    0.000000    0.000000
    17        -0.039057504192234    2.645e-13    0.005398    0.000000    0.000000    0.000000
    18        -0.039057504192234    5.893e-14    0.005398    0.000000    0.000000    0.000000

	Iterations converged.


	Largest TIA Amplitudes:
	          7   0         0.0158570331
	          6   0        -0.0019301718
	          4   1         0.0017546141
	          7   1         0.0012752923
	          3   1         0.0010710542
	          3   0         0.0007203566
	          4   0        -0.0006659442
	          6   1        -0.0004012305
	          2   0        -0.0002388897
	          2   1         0.0001474736

	Largest Tia Amplitudes:
	          7   0         0.0158570331
	          6   0        -0.0019301718
	          4   1         0.0017546141
	          7   1         0.0012752923
	          3   1         0.0010710542
	          3   0         0.0007203566
	          4   0        -0.0006659442
	          6   1        -0.0004012305
	          2   0        -0.0002388897
	          2   1         0.0001474736

	Largest TIJAB Amplitudes:
	  6   4   1   0        -0.0102209764
	  6   3   1   0         0.0084169977
	  7   6   1   0        -0.0064601293
	  4   2   1   0        -0.0050321948
	  3   2   1   0         0.0047189618
	  7   2   1   0         0.0045685114
	  4   3   1   0        -0.0039759608
	  7   3   1   0         0.0020100429
	  7   4   1   0         0.0009862570
	  4   1   1   0        -0.0003672625

	Largest Tijab Amplitudes:
	  6   4   1   0        -0.0102209764
	  6   3   1   0         0.0084169977
	  7   6   1   0        -0.0064601293
	  4   2   1   0        -0.0050321948
	  3   2   1   0         0.0047189618
	  7   2   1   0         0.0045685114
	  4   3   1   0        -0.0039759608
	  7   3   1   0         0.0020100429
	  7   4   1   0         0.0009862570
	  4   1   1   0        -0.0003672625

	Largest TIjAb Amplitudes:
	  7   7   0   0        -0.0697462812
	  3   3   0   0        -0.0321571383
	  3   7   0   0         0.0287409616
	  7   3   0   0         0.0287409616
	  6   6   1   1        -0.0286544005
	  4   7   0   0        -0.0277749167
	  7   4   0   0        -0.0277749167
	  8   8   1   1        -0.0225610128
	  2   2   1   1        -0.0209476184
	  4   4   0   0        -0.0179617192

	SCF energy       (chkpt)              = -171.572206713905473
	Reference energy (file100)            = -171.572206713905359

	Opposite-spin MP2 correlation energy  =   -0.027124831779391
	Same-spin MP2 correlation energy      =   -0.001807569649016
	MP2 correlation energy                =   -0.028932401428407
      * MP2 total energy                      = -171.601139115333780

	Opposite-spin CCSD correlation energy =   -0.036943744564788
	Same-spin CCSD correlation energy     =   -0.002113759627088
	CCSD correlation energy               =   -0.039057504192234
      * CCSD total energy                     = -171.611264218097602


*** tstop() called on ganymede.local at Wed Jan 15 10:58:37 2014
Module time:
	user time   =       0.30 seconds =       0.01 minutes
	system time =       0.40 seconds =       0.01 minutes
	total time  =          4 seconds =       0.07 minutes
Total time:
	user time   =       1.72 seconds =       0.03 minutes
	system time =       1.40 seconds =       0.02 minutes
	total time  =         11 seconds =       0.18 minutes

*** tstart() called on ganymede.local
*** at Wed Jan 15 10:58:37 2014

			**************************
			*                        *
			*        CCTRIPLES       *
			*                        *
			**************************


	Wave function   =    CCSD_T
	Reference wfn   =      UHF

	Nuclear Rep. energy (chkpt)   =   50.364070043106842
	SCF energy          (chkpt)   = -171.572206713905473
	Reference energy    (file100) = -171.572206713905359
	CCSD energy         (file100) =   -0.039057504192234
	Total CCSD energy   (file100) = -171.611264218097602

	Number of ijk index combinations:
	Spin Case AAA: 84
	Spin Case BBB: 84
	Spin Case AAB: 324
	Spin Case ABB: 324
	AAA (T) energy                =    0.000000000000000
	BBB (T) energy                =    0.000000000000000
	AAB (T) energy                =   -0.000105815294880
	ABB (T) energy                =   -0.000105815294880
	(T) energy                    =   -0.000211630589760
      * CCSD(T) total energy          = -171.611475848687348


*** tstop() called on ganymede.local at Wed Jan 15 10:58:37 2014
Module time:
	user time   =       0.03 seconds =       0.00 minutes
	system time =       0.03 seconds =       0.00 minutes
	total time  =          0 seconds =       0.00 minutes
Total time:
	user time   =       1.75 seconds =       0.03 minutes
	system time =       1.43 seconds =       0.02 minutes
	total time  =         11 seconds =       0.18 minutes

  //>>>>>>>>>>>>>>>>>>>>>>>>>>>>>>>>>>>//
  //    Loading displacement 4 of 7    //
  //<<<<<<<<<<<<<<<<<<<<<<<<<<<<<<<<<<<//

*** tstart() called on ganymede.local
*** at Wed Jan 15 10:58:37 2014


         ---------------------------------------------------------
                                   SCF
            by Justin Turney, Rob Parrish, and Andy Simmonett
                              UHF Reference
                        1 Threads,    256 MiB Core
         ---------------------------------------------------------

  ==> Geometry <==

    Molecular point group: c1
    Full point group: Cs

    Geometry (in Bohr), charge = 0, multiplicity = 1:

       Center              X                  Y                   Z       
    ------------   -----------------  -----------------  -----------------
           O          0.000000000000     0.000000000000    -0.115979788807
           H          0.000000000000     1.344767972762     0.920341706415
           F          0.000000000000    -1.344767972762     0.924470148348

  Running in c1 symmetry.


	Rotational constants (cm^-1):
	A =   24.44995    B =    1.17986   C =    1.12554

	Rotational constants (MHz):
	A = 732991.10090    B = 35371.25397   C = 33742.95243
  Nuclear repulsion =   50.404487797711766

  Charge       = 0
  Multiplicity = 1
  Electrons    = 18
  Nalpha       = 9
  Nbeta        = 9

  ==> Algorithm <==

  SCF Algorithm Type is PK.
  DIIS enabled.
  MOM disabled.
  Fractional occupation disabled.
  Guess Type is CORE.
  Energy threshold   = 1.00e-10
  Density threshold  = 1.00e-10
  Integral threshold = 0.00e+00

  ==> Primary Basis <==

  Basis Set: STO-3G
    Number of shells: 7
    Number of basis function: 11
    Number of Cartesian functions: 11
    Spherical Harmonics?: true
    Max angular momentum: 1

  ==> Pre-Iterations <==

   -------------------------------------------------------
    Irrep   Nso     Nmo     Nalpha   Nbeta   Ndocc  Nsocc
   -------------------------------------------------------
     A         11      11       0       0       0       0
   -------------------------------------------------------
    Total      11      11       9       9       9       0
   -------------------------------------------------------

  Starting with a DF guess...

 OEINTS: Wrapper to libmints.
   by Justin Turney

   Calculation information:
      Number of atoms:                   3
      Number of AO shells:               7
      Number of SO shells:               7
      Number of primitives:             21
      Number of atomic orbitals:        11
      Number of basis functions:        11

      Number of irreps:                  1
      Number of functions per irrep: [  11 ]

      Overlap, kinetic, potential, dipole, and quadrupole integrals
        stored in file 35.

  ==> Integral Setup <==

  ==> DFJK: Density-Fitted J/K Matrices <==

    J tasked:                  Yes
    K tasked:                  Yes
    wK tasked:                  No
    OpenMP threads:              1
    Integrals threads:           1
    Memory (MB):               183
    Algorithm:                Core
    Integral Cache:           NONE
    Schwarz Cutoff:          1E-12
    Fitting Condition:       1E-12

   => Auxiliary Basis Set <=

  Basis Set: CC-PVDZ-JKFIT
    Number of shells: 57
    Number of basis function: 163
    Number of Cartesian functions: 187
    Spherical Harmonics?: true
    Max angular momentum: 3

  Minimum eigenvalue in the overlap matrix is 1.6292905603E-01.
  Using Symmetric Orthogonalization.
  SCF Guess: Core (One-Electron) Hamiltonian.

  ==> Iterations <==

                           Total Energy        Delta E     RMS |[F,P]|

   @DF-UHF iter   1:  -167.16608478706493   -1.67166e+02   1.16051e-01 
   @DF-UHF iter   2:  -171.10400724714682   -3.93792e+00   8.18825e-02 DIIS
   @DF-UHF iter   3:  -171.55048522433381   -4.46478e-01   1.34179e-02 DIIS
   @DF-UHF iter   4:  -171.56756063805017   -1.70754e-02   2.94053e-03 DIIS
   @DF-UHF iter   5:  -171.56843968113637   -8.79043e-04   4.41418e-04 DIIS
   @DF-UHF iter   6:  -171.56846401150923   -2.43304e-05   5.85387e-05 DIIS
   @DF-UHF iter   7:  -171.56846444185007   -4.30341e-07   6.01051e-06 DIIS
   @DF-UHF iter   8:  -171.56846444628385   -4.43379e-09   7.84397e-07 DIIS
   @DF-UHF iter   9:  -171.56846444634155   -5.76961e-11   6.29837e-08 DIIS
   @DF-UHF iter  10:  -171.56846444634184   -2.84217e-13   5.80330e-09 DIIS
   @DF-UHF iter  11:  -171.56846444634166    1.70530e-13   7.99296e-10 DIIS
   @DF-UHF iter  12:  -171.56846444634178   -1.13687e-13   4.67244e-11 DIIS

  DF guess converged.

  ==> Integral Setup <==

 MINTS: Wrapper to libmints.
   by Justin Turney

   Calculation information:
      Number of atoms:                   3
      Number of AO shells:               7
      Number of SO shells:               7
      Number of primitives:             21
      Number of atomic orbitals:        11
      Number of basis functions:        11

      Number of irreps:                  1
      Integral cutoff                 0.00e+00
      Number of functions per irrep: [  11 ]

      Overlap, kinetic, potential, dipole, and quadrupole integrals
        stored in file 35.

      Computing two-electron integrals...done
      Computed 1272 non-zero two-electron integrals.
        Stored in file 33.

	Batch   1 pq = [       0,      66] index = [             0,2211]
  ==> DiskJK: Disk-Based J/K Matrices <==

    J tasked:                  Yes
    K tasked:                  Yes
    wK tasked:                  No
    Memory (MB):               183
    Schwarz Cutoff:          1E-12

   @UHF iter  13:  -171.56886203412026   -3.97588e-04   1.31768e-05 DIIS
   @UHF iter  14:  -171.56886205583086   -2.17106e-08   3.24153e-06 DIIS
   @UHF iter  15:  -171.56886205748509   -1.65423e-09   7.26445e-07 DIIS
   @UHF iter  16:  -171.56886205756010   -7.50049e-11   5.97260e-08 DIIS
   @UHF iter  17:  -171.56886205756052   -4.26326e-13   5.92756e-09 DIIS
   @UHF iter  18:  -171.56886205756052    0.00000e+00   5.88678e-10 DIIS
   @UHF iter  19:  -171.56886205756055   -2.84217e-14   8.10565e-11 DIIS

  ==> Post-Iterations <==

   @Spin Contamination Metric:   1.776356839E-15
   @S^2 Expected:                0.000000000E+00
   @S^2 Observed:                1.776356839E-15
   @S   Expected:                0.000000000E+00
   @S   Observed:                0.000000000E+00

	Orbital Energies (a.u.)
	-----------------------

	Alpha Occupied:                                                       

	   1A    -26.127768     2A    -20.491385     3A     -2.116590  
	   4A     -1.120945     5A     -0.929020     6A     -0.902341  
	   7A     -0.759307     8A     -0.329549     9A     -0.245113  

	Alpha Virtual:                                                        

	  10A      0.673366    11A      1.462844  

	Beta Occupied:                                                        

	   1A    -26.127768     2A    -20.491385     3A     -2.116590  
	   4A     -1.120945     5A     -0.929020     6A     -0.902341  
	   7A     -0.759307     8A     -0.329549     9A     -0.245113  

	Beta Virtual:                                                         

	  10A      0.673366    11A      1.462844  

	Final Occupation by Irrep:
	          A 
	DOCC [     9 ]
	SOCC [     0 ]

  Energy converged.

  @UHF Final Energy:  -171.56886205756055

   => Energetics <=

    Nuclear Repulsion Energy =             50.4044877977117665
    One-Electron Energy =                -337.9026647534282120
    Two-Electron Energy =                 115.9293148981559085
    DFT Exchange-Correlation Energy =       0.0000000000000000
    Empirical Dispersion Energy =           0.0000000000000000
    Total Energy =                       -171.5688620575605228



Properties will be evaluated at   0.000000,   0.000000,   0.000000 Bohr
  ==> Properties <==


Properties computed using the SCF density density matrix
  Nuclear Dipole Moment: (a.u.)
     X:     0.0000      Y:   -10.7581      Z:     8.3127

  Electronic Dipole Moment: (a.u.)
     X:    -0.0000      Y:    11.0356      Z:    -7.9111

  Dipole Moment: (a.u.)
     X:    -0.0000      Y:     0.2775      Z:     0.4017     Total:     0.4882

  Dipole Moment: (Debye)
     X:    -0.0000      Y:     0.7053      Z:     1.0209     Total:     1.2409


  Saving occupied orbitals to File 180.

*** tstop() called on ganymede.local at Wed Jan 15 10:58:37 2014
Module time:
	user time   =       0.18 seconds =       0.00 minutes
	system time =       0.01 seconds =       0.00 minutes
	total time  =          0 seconds =       0.00 minutes
Total time:
	user time   =       1.96 seconds =       0.03 minutes
	system time =       1.44 seconds =       0.02 minutes
	total time  =         11 seconds =       0.18 minutes

*** tstart() called on ganymede.local
*** at Wed Jan 15 10:58:37 2014


	**************************************************
	* TRANSQT2: Program to transform integrals from  *
	*           the SO basis to the MO basis.        *
	*                                                *
	*            Daniel, David, & Justin             *
	**************************************************


	Input parameters:
	-----------------
	Wave function   =	CCSD_T
	Backtransform   =	No
	Print Level     =	1
	Print TEIs      =	No
	Reference wfn   =	UHF
	Derivative      =	None
	Delete TEI File =	Yes
	Memory (Mbytes) =	256.0
	Cache Level     =	2
	Cache Type      =	LRU
	Chkpt Parameters:
	--------------------
	Number of irreps     = 1
	Number of SOs        = 11
	Number of MOs        = 11
	Number of active MOs = 11

	Label	# SOs	# FZDC	# DOCC	# SOCC	# VIRT	# FZVR
	-----	-----	------	------	------	------	------
	 A	   11	    0	    9	    0	    2	    0

	Nuclear Rep. energy (chkpt) =     50.40448779771177
	SCF energy          (chkpt) =   -171.56886205756055

	Presorting SO-basis two-electron integrals.
	Sorting File: SO Ints (pq,rs) nbuckets = 1
	Frozen-core energy =    0.000000000000000
	Starting AA/AB first half-transformation.
	Sorting AA/AB half-transformed integrals.
	Starting AA second half-transformation.
	Starting AB second half-transformation.
	Starting BB first half-transformation.
	Sorting BB half-transformed integrals.
	Starting BB second half-transformation.
	Two-electron integral transformation complete.

*** tstop() called on ganymede.local at Wed Jan 15 10:58:37 2014
Module time:
	user time   =       0.01 seconds =       0.00 minutes
	system time =       0.01 seconds =       0.00 minutes
	total time  =          0 seconds =       0.00 minutes
Total time:
	user time   =       1.98 seconds =       0.03 minutes
	system time =       1.45 seconds =       0.02 minutes
	total time  =         11 seconds =       0.18 minutes

*** tstart() called on ganymede.local
*** at Wed Jan 15 10:58:37 2014


			**************************
			*                        *
			*         CCSORT         *
			*                        *
			**************************


	Input parameters:
	-----------------
	Wave function   =	CCSD_T
	Reference wfn   =	UHF
	Derivative      =	None
	Memory (Mbytes) =	256.0
	AO Basis        =	NONE
	Make (ab|cd)    =	True
	Make unpacked (ab|cd) =	True
	Cache Level     =	2
	Cache Type      =	LRU
	Local CC        =     No


	Chkpt Parameters:
	--------------------
	Number of irreps     = 1
	Number of MOs        = 11
	Number of active MOs = 11

	Label	# MOs	# FZDC	# DOCC	# SOCC	# VIRT	# FZVR
	-----	-----	------	------	------	------	------
	 A	   11	    0	    9	    0	    2	    0

[...]
    Memory (MB):               183
    Algorithm:                Core
    Integral Cache:           NONE
    Schwarz Cutoff:          1E-12
    Fitting Condition:       1E-12

   => Auxiliary Basis Set <=

  Basis Set: CC-PVDZ-JKFIT
    Number of shells: 57
    Number of basis function: 163
    Number of Cartesian functions: 187
    Spherical Harmonics?: true
    Max angular momentum: 3

  Minimum eigenvalue in the overlap matrix is 1.6312810210E-01.
  Using Symmetric Orthogonalization.
  SCF Guess: Core (One-Electron) Hamiltonian.

  ==> Iterations <==

                           Total Energy        Delta E     RMS |[F,P]|

   @DF-UHF iter   1:  -167.17069154509232   -1.67171e+02   1.15965e-01 
   @DF-UHF iter   2:  -171.10103371713325   -3.93034e+00   8.21785e-02 DIIS
   @DF-UHF iter   3:  -171.55196321799005   -4.50930e-01   1.34822e-02 DIIS
   @DF-UHF iter   4:  -171.56922623658781   -1.72630e-02   2.95921e-03 DIIS
   @DF-UHF iter   5:  -171.57011730363541   -8.91067e-04   4.46044e-04 DIIS
   @DF-UHF iter   6:  -171.57014214090262   -2.48373e-05   5.88952e-05 DIIS
   @DF-UHF iter   7:  -171.57014257666157   -4.35759e-07   6.08645e-06 DIIS
   @DF-UHF iter   8:  -171.57014258122246   -4.56089e-09   7.93377e-07 DIIS
   @DF-UHF iter   9:  -171.57014258128137   -5.89182e-11   6.36281e-08 DIIS
   @DF-UHF iter  10:  -171.57014258128177   -3.97904e-13   5.88828e-09 DIIS
   @DF-UHF iter  11:  -171.57014258128166    1.13687e-13   8.15563e-10 DIIS
   @DF-UHF iter  12:  -171.57014258128189   -2.27374e-13   4.77574e-11 DIIS

  DF guess converged.

  ==> Integral Setup <==

 MINTS: Wrapper to libmints.
   by Justin Turney

   Calculation information:
      Number of atoms:                   3
      Number of AO shells:               7
      Number of SO shells:               7
      Number of primitives:             21
      Number of atomic orbitals:        11
      Number of basis functions:        11

      Number of irreps:                  1
      Integral cutoff                 0.00e+00
      Number of functions per irrep: [  11 ]

      Overlap, kinetic, potential, dipole, and quadrupole integrals
        stored in file 35.

      Computing two-electron integrals...done
      Computed 1272 non-zero two-electron integrals.
        Stored in file 33.

	Batch   1 pq = [       0,      66] index = [             0,2211]
  ==> DiskJK: Disk-Based J/K Matrices <==

    J tasked:                  Yes
    K tasked:                  Yes
    wK tasked:                  No
    Memory (MB):               183
    Schwarz Cutoff:          1E-12

   @UHF iter  13:  -171.57054016251709   -3.97581e-04   1.31603e-05 DIIS
   @UHF iter  14:  -171.57054018419194   -2.16749e-08   3.23481e-06 DIIS
   @UHF iter  15:  -171.57054018584083   -1.64889e-09   7.26041e-07 DIIS
   @UHF iter  16:  -171.57054018591583   -7.50049e-11   6.06618e-08 DIIS
   @UHF iter  17:  -171.57054018591620   -3.69482e-13   5.97586e-09 DIIS
   @UHF iter  18:  -171.57054018591626   -5.68434e-14   5.95260e-10 DIIS
   @UHF iter  19:  -171.57054018591614    1.13687e-13   8.17677e-11 DIIS

  ==> Post-Iterations <==

   @Spin Contamination Metric:  -3.552713679E-15
   @S^2 Expected:                0.000000000E+00
   @S^2 Observed:               -3.552713679E-15
   @S   Expected:                0.000000000E+00
   @S   Observed:                0.000000000E+00

	Orbital Energies (a.u.)
	-----------------------

	Alpha Occupied:                                                       

	   1A    -26.127734     2A    -20.491481     3A     -2.116318  
	   4A     -1.120312     5A     -0.928926     6A     -0.902158  
	   7A     -0.758964     8A     -0.329687     9A     -0.245294  

	Alpha Virtual:                                                        

	  10A      0.671335    11A      1.461851  

	Beta Occupied:                                                        

	   1A    -26.127734     2A    -20.491481     3A     -2.116318  
	   4A     -1.120312     5A     -0.928926     6A     -0.902158  
	   7A     -0.758964     8A     -0.329687     9A     -0.245294  

	Beta Virtual:                                                         

	  10A      0.671335    11A      1.461851  

	Final Occupation by Irrep:
	          A 
	DOCC [     9 ]
	SOCC [     0 ]

  Energy converged.

  @UHF Final Energy:  -171.57054018591614

   => Energetics <=

    Nuclear Repulsion Energy =             50.3842798697334970
    One-Electron Energy =                -337.8678935871621434
    Two-Electron Energy =                 115.9130735315125378
    DFT Exchange-Correlation Energy =       0.0000000000000000
    Empirical Dispersion Energy =           0.0000000000000000
    Total Energy =                       -171.5705401859160872



Properties will be evaluated at   0.000000,   0.000000,   0.000000 Bohr
  ==> Properties <==


Properties computed using the SCF density density matrix
  Nuclear Dipole Moment: (a.u.)
     X:     0.0000      Y:   -10.7581      Z:     8.3148

  Electronic Dipole Moment: (a.u.)
     X:     0.0000      Y:    11.0339      Z:    -7.9133

  Dipole Moment: (a.u.)
     X:     0.0000      Y:     0.2757      Z:     0.4015     Total:     0.4870

  Dipole Moment: (Debye)
     X:     0.0000      Y:     0.7008      Z:     1.0204     Total:     1.2379


  Saving occupied orbitals to File 180.

*** tstop() called on ganymede.local at Wed Jan 15 10:58:55 2014
Module time:
	user time   =       0.18 seconds =       0.00 minutes
	system time =       0.02 seconds =       0.00 minutes
	total time  =          0 seconds =       0.00 minutes
Total time:
	user time   =       3.77 seconds =       0.06 minutes
	system time =       2.97 seconds =       0.05 minutes
	total time  =         29 seconds =       0.48 minutes

*** tstart() called on ganymede.local
*** at Wed Jan 15 10:58:55 2014


	**************************************************
	* TRANSQT2: Program to transform integrals from  *
	*           the SO basis to the MO basis.        *
	*                                                *
	*            Daniel, David, & Justin             *
	**************************************************


	Input parameters:
	-----------------
	Wave function   =	CCSD_T
	Backtransform   =	No
	Print Level     =	1
	Print TEIs      =	No
	Reference wfn   =	UHF
	Derivative      =	None
	Delete TEI File =	Yes
	Memory (Mbytes) =	256.0
	Cache Level     =	2
	Cache Type      =	LRU
	Chkpt Parameters:
	--------------------
	Number of irreps     = 1
	Number of SOs        = 11
	Number of MOs        = 11
	Number of active MOs = 11

	Label	# SOs	# FZDC	# DOCC	# SOCC	# VIRT	# FZVR
	-----	-----	------	------	------	------	------
	 A	   11	    0	    9	    0	    2	    0

	Nuclear Rep. energy (chkpt) =     50.38427986973350
	SCF energy          (chkpt) =   -171.57054018591614

	Presorting SO-basis two-electron integrals.
	Sorting File: SO Ints (pq,rs) nbuckets = 1
	Frozen-core energy =    0.000000000000000
	Starting AA/AB first half-transformation.
	Sorting AA/AB half-transformed integrals.
	Starting AA second half-transformation.
	Starting AB second half-transformation.
	Starting BB first half-transformation.
	Sorting BB half-transformed integrals.
	Starting BB second half-transformation.
	Two-electron integral transformation complete.

*** tstop() called on ganymede.local at Wed Jan 15 10:58:55 2014
Module time:
	user time   =       0.00 seconds =       0.00 minutes
	system time =       0.01 seconds =       0.00 minutes
	total time  =          0 seconds =       0.00 minutes
Total time:
	user time   =       3.78 seconds =       0.06 minutes
	system time =       2.98 seconds =       0.05 minutes
	total time  =         29 seconds =       0.48 minutes

*** tstart() called on ganymede.local
*** at Wed Jan 15 10:58:55 2014


			**************************
			*                        *
			*         CCSORT         *
			*                        *
			**************************


	Input parameters:
	-----------------
	Wave function   =	CCSD_T
	Reference wfn   =	UHF
	Derivative      =	None
	Memory (Mbytes) =	256.0
	AO Basis        =	NONE
	Make (ab|cd)    =	True
	Make unpacked (ab|cd) =	True
	Cache Level     =	2
	Cache Type      =	LRU
	Local CC        =     No


	Chkpt Parameters:
	--------------------
	Number of irreps     = 1
	Number of MOs        = 11
	Number of active MOs = 11

	Label	# MOs	# FZDC	# DOCC	# SOCC	# VIRT	# FZVR
	-----	-----	------	------	------	------	------
	 A	   11	    0	    9	    0	    2	    0

	Nuclear Rep. energy (chkpt) =     50.38427986973350
	SCF energy          (chkpt) =   -171.57054018591614

	Size of irrep 0 of <AB|CD> integrals:      0.000 (MW) /      0.000 (MB)
	Total:                                     0.000 (MW) /      0.000 (MB)

	Size of irrep 0 of <ab|cd> integrals:      0.000 (MW) /      0.000 (MB)
	Total:                                     0.000 (MW) /      0.000 (MB)

	Size of irrep 0 of <Ab|Cd> integrals:      0.000 (MW) /      0.000 (MB)
	Total:                                     0.000 (MW) /      0.000 (MB)

	Size of irrep 0 of <IA|BC> integrals:      0.000 (MW) /      0.001 (MB)
	Total:                                     0.000 (MW) /      0.001 (MB)

	Size of irrep 0 of <ia|bc> integrals:      0.000 (MW) /      0.001 (MB)
	Total:                                     0.000 (MW) /      0.001 (MB)

	Size of irrep 0 of <Ia|Bc> integrals:      0.000 (MW) /      0.001 (MB)
	Total:                                     0.000 (MW) /      0.001 (MB)

	Size of irrep 0 of <iA|bC> integrals:      0.000 (MW) /      0.001 (MB)
	Total:                                     0.000 (MW) /      0.001 (MB)

	Size of irrep 0 of tIjAb amplitudes:       0.000 (MW) /      0.003 (MB)
	Total:                                     0.000 (MW) /      0.003 (MB)


	Sorting File: A <IJ|KL> nbuckets = 1
	Sorting File: B <AB|CD> nbuckets = 1
	Sorting File: C <IA|JB> nbuckets = 1
	Sorting File: D <IJ|AB> nbuckets = 1
	Sorting File: E <AI|JK> nbuckets = 1
	Sorting File: F <IA|BC> nbuckets = 1
	Sorting File: F <AI|BC> nbuckets = 1
	Sorting File: A <ij|kl> nbuckets = 1
	Sorting File: B <ab|cd> nbuckets = 1
	Sorting File: C <ia|jb> nbuckets = 1
	Sorting File: D <ij|ab> nbuckets = 1
	Sorting File: E <ai|jk> nbuckets = 1
	Sorting File: F <ia|bc> nbuckets = 1
	Sorting File: F <ai|bc> nbuckets = 1
	Sorting File: A <Ij|Kl> nbuckets = 1
	Sorting File: B <Ab|Cd> nbuckets = 1
	Sorting File: C <Ia|Jb> nbuckets = 1
	Sorting File: C <Ai|Bj> nbuckets = 1
	Sorting File: D <Ij|Ab> nbuckets = 1
	Sorting File: E <Ai|Jk> nbuckets = 1
	Sorting File: E <Ij|Ka> nbuckets = 1
	Sorting File: F <Ia|Bc> nbuckets = 1
	Sorting File: F <aI|bC> nbuckets = 1
	Sorting File: F <Ab|Ci> nbuckets = 1
	Sorting File: F <Ai|Bc> nbuckets = 1
	One-electron energy          =   -337.86789358768601
	Two-electron (AA) energy     =     24.16005125148879
	Two-electron (BB) energy     =     24.16005125148879
	Two-electron (AB) energy     =     67.59297102905872
	Two-electron energy          =    115.91307353203629
	Frozen-core energy (transqt) =      0.00000000000000
	Reference energy             =   -171.57054018591626

*** tstop() called on ganymede.local at Wed Jan 15 10:58:57 2014
Module time:
	user time   =       0.04 seconds =       0.00 minutes
	system time =       0.07 seconds =       0.00 minutes
	total time  =          2 seconds =       0.03 minutes
Total time:
	user time   =       3.82 seconds =       0.06 minutes
	system time =       3.05 seconds =       0.05 minutes
	total time  =         31 seconds =       0.52 minutes

*** tstart() called on ganymede.local
*** at Wed Jan 15 10:58:57 2014

			**************************
			*                        *
			*        CCENERGY        *
			*                        *
			**************************

	Nuclear Rep. energy (chkpt)   =   50.384279869733497
	SCF energy          (chkpt)   = -171.570540185916144
	Reference energy    (file100) = -171.570540185916258

	Input parameters:
	-----------------
	Wave function   =   CCSD_T
	Reference wfn   =     UHF
	Memory (Mbytes) =     256.0
	Maxiter         =     50
	R_Convergence   =     1.0e-13
	E_Convergence   =     1.0e-08
	Restart         =     No
	DIIS            =     Yes
	AO Basis        =     NONE
	ABCD            =     NEW
	Cache Level     =     2
	Cache Type      =     LRU
	Print Level     =     1
	Num. of threads =     1
	# Amps to Print =     10
	Print MP2 Amps? =     No
	Analyze T2 Amps =     No
	Print Pair Ener =     No
	Local CC        =     No
	SCS-MP2         =     False
	SCSN-MP2        =     False
	SCS-CCSD        =     False

	            Solving CC Amplitude Equations
	            ------------------------------
  Iter             Energy              RMS        T1Diag      D1Diag    New D1Diag    D2Diag
  ----     ---------------------    ---------   ----------  ----------  ----------   --------
     0        -0.028859642451903    5.893e-14    0.000000    0.000000    0.000000    0.000000
     1        -0.035648902314855    2.869e-02    0.002705    0.000000    0.000000    0.000000
     2        -0.038915289930056    1.132e-02    0.004688    0.000000    0.000000    0.000000
     3        -0.038951409341552    2.101e-03    0.005189    0.000000    0.000000    0.000000
     4        -0.038932594104593    6.275e-04    0.005337    0.000000    0.000000    0.000000
     5        -0.038936538785362    1.377e-04    0.005375    0.000000    0.000000    0.000000
     6        -0.038935896051673    1.379e-05    0.005376    0.000000    0.000000    0.000000
     7        -0.038935975428865    1.896e-06    0.005376    0.000000    0.000000    0.000000
     8        -0.038935969015067    4.186e-07    0.005376    0.000000    0.000000    0.000000
     9        -0.038935968453180    8.826e-08    0.005376    0.000000    0.000000    0.000000
    10        -0.038935968325677    1.560e-08    0.005376    0.000000    0.000000    0.000000
    11        -0.038935968480065    3.037e-09    0.005376    0.000000    0.000000    0.000000
    12        -0.038935968448089    5.851e-10    0.005376    0.000000    0.000000    0.000000
    13        -0.038935968442697    8.182e-11    0.005376    0.000000    0.000000    0.000000
    14        -0.038935968441843    2.040e-11    0.005376    0.000000    0.000000    0.000000
    15        -0.038935968442175    5.293e-12    0.005376    0.000000    0.000000    0.000000
    16        -0.038935968442299    1.345e-12    0.005376    0.000000    0.000000    0.000000
    17        -0.038935968442302    2.633e-13    0.005376    0.000000    0.000000    0.000000
    18        -0.038935968442302    5.813e-14    0.005376    0.000000    0.000000    0.000000

	Iterations converged.


	Largest TIA Amplitudes:
	          7   0         0.0157905917
	          6   0        -0.0019548075
	          4   1         0.0017505038
	          7   1         0.0012588018
	          3   1         0.0010652426
	          3   0         0.0006967063
	          4   0        -0.0006670194
	          6   1        -0.0003973660
	          2   0        -0.0002437958
	          2   1         0.0001471157

	Largest Tia Amplitudes:
	          7   0         0.0157905917
	          6   0        -0.0019548075
	          4   1         0.0017505038
	          7   1         0.0012588018
	          3   1         0.0010652426
	          3   0         0.0006967063
	          4   0        -0.0006670194
	          6   1        -0.0003973660
	          2   0        -0.0002437958
	          2   1         0.0001471157

	Largest TIJAB Amplitudes:
	  6   4   1   0        -0.0101671559
	  6   3   1   0         0.0084134361
	  7   6   1   0        -0.0064936016
	  4   2   1   0        -0.0050125880
	  3   2   1   0         0.0047253524
	  7   2   1   0         0.0045780620
	  4   3   1   0        -0.0039756046
	  7   3   1   0         0.0019824310
	  7   4   1   0         0.0009988352
	  4   1   1   0        -0.0003666048

	Largest Tijab Amplitudes:
	  6   4   1   0        -0.0101671559
	  6   3   1   0         0.0084134361
	  7   6   1   0        -0.0064936016
	  4   2   1   0        -0.0050125880
	  3   2   1   0         0.0047253524
	  7   2   1   0         0.0045780620
	  4   3   1   0        -0.0039756046
	  7   3   1   0         0.0019824310
	  7   4   1   0         0.0009988352
	  4   1   1   0        -0.0003666048

	Largest TIjAb Amplitudes:
	  7   7   0   0        -0.0692853415
	  3   3   0   0        -0.0322301571
	  3   7   0   0         0.0287098603
	  7   3   0   0         0.0287098603
	  6   6   1   1        -0.0286068291
	  4   7   0   0        -0.0275463625
	  7   4   0   0        -0.0275463625
	  8   8   1   1        -0.0225516857
	  2   2   1   1        -0.0209388729
	  4   4   0   0        -0.0178123849

	SCF energy       (chkpt)              = -171.570540185916144
	Reference energy (file100)            = -171.570540185916258

	Opposite-spin MP2 correlation energy  =   -0.027055818242063
	Same-spin MP2 correlation energy      =   -0.001803824209840
	MP2 correlation energy                =   -0.028859642451903
      * MP2 total energy                      = -171.599399828368149

	Opposite-spin CCSD correlation energy =   -0.036826431750139
	Same-spin CCSD correlation energy     =   -0.002109536691806
	CCSD correlation energy               =   -0.038935968442302
      * CCSD total energy                     = -171.609476154358561


*** tstop() called on ganymede.local at Wed Jan 15 10:59:01 2014
Module time:
	user time   =       0.31 seconds =       0.01 minutes
	system time =       0.40 seconds =       0.01 minutes
	total time  =          4 seconds =       0.07 minutes
Total time:
	user time   =       4.14 seconds =       0.07 minutes
	system time =       3.45 seconds =       0.06 minutes
	total time  =         35 seconds =       0.58 minutes

*** tstart() called on ganymede.local
*** at Wed Jan 15 10:59:01 2014

			**************************
			*                        *
			*        CCTRIPLES       *
			*                        *
			**************************


	Wave function   =    CCSD_T
	Reference wfn   =      UHF

	Nuclear Rep. energy (chkpt)   =   50.384279869733497
	SCF energy          (chkpt)   = -171.570540185916144
	Reference energy    (file100) = -171.570540185916258
	CCSD energy         (file100) =   -0.038935968442302
	Total CCSD energy   (file100) = -171.609476154358561

	Number of ijk index combinations:
	Spin Case AAA: 84
	Spin Case BBB: 84
	Spin Case AAB: 324
	Spin Case ABB: 324
	AAA (T) energy                =    0.000000000000000
	BBB (T) energy                =    0.000000000000000
	AAB (T) energy                =   -0.000105154596921
	ABB (T) energy                =   -0.000105154596921
	(T) energy                    =   -0.000210309193841
      * CCSD(T) total energy          = -171.609686463552407


*** tstop() called on ganymede.local at Wed Jan 15 10:59:02 2014
Module time:
	user time   =       0.03 seconds =       0.00 minutes
	system time =       0.03 seconds =       0.00 minutes
	total time  =          1 seconds =       0.02 minutes
Total time:
	user time   =       4.17 seconds =       0.07 minutes
	system time =       3.48 seconds =       0.06 minutes
	total time  =         36 seconds =       0.60 minutes

-------------------------------------------------------------

  Computing gradient from energies (fd_1_0).
	Using 3-point formula.
	Energy without displacement: -171.6096864636
	Check energies below for precision!
	Forces are for mass-weighted, symmetry-adapted cartesians (in au).

	 Coord      Energy(-)        Energy(+)        Force
	    0   -171.6053387795  -171.6140088157    -0.8670036132
	    1   -171.6114758487  -171.6078863575     0.3589491228
	    2   -171.6079229511  -171.6114315129    -0.3508561797

	Gradient saved to wavefunction.

-------------------------------------------------------------
  Irrep: 1 Size: 3 x 3

                 1            2            3

    1    0.0000000   -2.1220615    1.8230589
    2    0.0000000   -0.2363398   -0.0899916
    3    0.0000000    2.3584013   -1.7330672




*** PSI4 exiting successfully. Buy a developer a beer!
