    -----------------------------------------------------------------------
          Psi4: An Open-Source Ab Initio Electronic Structure Package
                              Psi4 0.1.86 Driver

                          Git: Rev {master} 4b6c5a4 

    J. M. Turney, A. C. Simmonett, R. M. Parrish, E. G. Hohenstein,
    F. A. Evangelista, J. T. Fermann, B. J. Mintz, L. A. Burns, J. J. Wilke,
    M. L. Abrams, N. J. Russ, M. L. Leininger, C. L. Janssen, E. T. Seidl,
    W. D. Allen, H. F. Schaefer, R. A. King, E. F. Valeev, C. D. Sherrill,
    and T. D. Crawford, WIREs Comput. Mol. Sci. 2, 556-565 (2012)
    (doi: 10.1002/wcms.93)

                         Additional Contributions by
    A. E. DePrince, M. Saitow, U. Bozkaya, A. Yu. Sokolov
    -----------------------------------------------------------------------


    Psi4 started on: 04-25-2015  12:16:27 PM EDT

    Process ID:  97819
    PSI4DATADIR: /Users/crawdad/psi4/share/psi
    Memory level set to 256.000 MB

  ==> Input File <==

--------------------------------------------------------------------------
molecule {
0 1
    O         0.000000000000     0.000000000000    -0.116529192243
    H        -0.000000000000     1.344767972762     0.924701422022
    F        -0.000000000000    -1.344767972762     0.924701422022
no_reorient
no_com
units bohr
#symmetry c1
}

set {
  reference rhf
  basis sto-3g
  freeze_core true
  r_convergence 1e-15
  e_convergence 1e-15
}

energy('ccsd(t)')


--------------------------------------------------------------------------

*** tstart() called on ganymede.local
*** at Sat Apr 25 12:16:27 2015


         ---------------------------------------------------------
                                   SCF
            by Justin Turney, Rob Parrish, and Andy Simmonett
                              RHF Reference
                        1 Threads,    256 MiB Core
         ---------------------------------------------------------

  ==> Geometry <==

    Molecular point group: cs
    Full point group: Cs

    Geometry (in Bohr), charge = 0, multiplicity = 1:

       Center              X                  Y                   Z       
    ------------   -----------------  -----------------  -----------------
           O          0.000000000000     0.000000000000    -0.116529192243
           H          0.000000000000     1.344767972762     0.924701422022
           F          0.000000000000    -1.344767972762     0.924701422022

  Running in cs symmetry.

  Rotational constants: A =     24.32461  B =      1.17973  C =      1.12516 [cm^-1]
  Rotational constants: A = 729233.39530  B =  35367.38085  C =  33731.42694 [MHz]
  Nuclear repulsion =   50.384279869733497

  Charge       = 0
  Multiplicity = 1
  Electrons    = 18
  Nalpha       = 9
  Nbeta        = 9

  ==> Algorithm <==

  SCF Algorithm Type is PK.
  DIIS enabled.
  MOM disabled.
  Fractional occupation disabled.
  Guess Type is CORE.
  Energy threshold   = 1.00e-15
  Density threshold  = 1.00e-08
  Integral threshold = 0.00e+00

  ==> Primary Basis <==

  Basis Set: STO-3G
    Number of shells: 7
    Number of basis function: 11
    Number of Cartesian functions: 11
    Spherical Harmonics?: true
    Max angular momentum: 1

  ==> Pre-Iterations <==

   -------------------------------------------------------
    Irrep   Nso     Nmo     Nalpha   Nbeta   Ndocc  Nsocc
   -------------------------------------------------------
     A'         9       9       0       0       0       0
     A"         2       2       0       0       0       0
   -------------------------------------------------------
    Total      11      11       9       9       9       0
   -------------------------------------------------------

  Starting with a DF guess...

 OEINTS: Overlap, kinetic, potential, dipole, and quadrupole integrals
         stored in file 35.

  ==> Integral Setup <==

  ==> DFJK: Density-Fitted J/K Matrices <==

    J tasked:                  Yes
    K tasked:                  Yes
    wK tasked:                  No
    OpenMP threads:              1
    Integrals threads:           1
    Memory (MB):               183
    Algorithm:                Core
    Integral Cache:           NONE
    Schwarz Cutoff:          1E-12
    Fitting Condition:       1E-12

   => Auxiliary Basis Set <=

  Basis Set: 
    Number of shells: 42
    Number of basis function: 126
    Number of Cartesian functions: 147
    Spherical Harmonics?: true
    Max angular momentum: 3

  Minimum eigenvalue in the overlap matrix is 1.6312810210E-01.
  Using Symmetric Orthogonalization.
  SCF Guess: Core (One-Electron) Hamiltonian.

  ==> Iterations <==

                           Total Energy        Delta E     RMS |[F,P]|

   @DF-RHF iter   1:  -167.17182644475665   -1.67172e+02   1.38356e-01 
   @DF-RHF iter   2:  -171.10185348031115   -3.93003e+00   9.80731e-02 DIIS
   @DF-RHF iter   3:  -171.55305273346463   -4.51199e-01   1.60938e-02 DIIS
   @DF-RHF iter   4:  -171.57033219717005   -1.72795e-02   3.53187e-03 DIIS
   @DF-RHF iter   5:  -171.57122377217502   -8.91575e-04   5.32655e-04 DIIS
   @DF-RHF iter   6:  -171.57124865172963   -2.48796e-05   7.02996e-05 DIIS
   @DF-RHF iter   7:  -171.57124908781327   -4.36084e-07   7.26621e-06 DIIS
   @DF-RHF iter   8:  -171.57124909238027   -4.56700e-09   9.47312e-07 DIIS
   @DF-RHF iter   9:  -171.57124909243947   -5.92024e-11   7.59812e-08 DIIS
   @DF-RHF iter  10:  -171.57124909243961   -1.42109e-13   7.03357e-09 DIIS
   @DF-RHF iter  11:  -171.57124909243961    0.00000e+00   9.74464e-10 DIIS

  DF guess converged.

  ==> Integral Setup <==

 MINTS: Wrapper to libmints.
   by Justin Turney

   Calculation information:
      Number of atoms:                   3
      Number of AO shells:               7
      Number of SO shells:               7
      Number of primitives:             21
      Number of atomic orbitals:        11
      Number of basis functions:        11

      Number of irreps:                  2
      Integral cutoff                 0.00e+00
      Number of functions per irrep: [   9    2 ]

 OEINTS: Overlap, kinetic, potential, dipole, and quadrupole integrals
         stored in file 35.

      Computing two-electron integrals...done
      Computed 1272 non-zero two-electron integrals.
        Stored in file 33.

	Batch   1 pq = [       0,      48] index = [             0,1176]
  ==> DiskJK: Disk-Based J/K Matrices <==

    J tasked:                  Yes
    K tasked:                  Yes
    wK tasked:                  No
    Memory (MB):               183
    Schwarz Cutoff:          1E-12

   @RHF iter  12:  -171.57054016679214    7.08926e-04   2.49702e-05 DIIS
   @RHF iter  13:  -171.57054018479431   -1.80022e-08   3.91123e-06 DIIS
   @RHF iter  14:  -171.57054018586203   -1.06772e-09   7.75416e-07 DIIS
   @RHF iter  15:  -171.57054018591521   -5.31770e-11   1.08469e-07 DIIS
   @RHF iter  16:  -171.57054018591631   -1.10845e-12   8.35238e-09 DIIS
   @RHF iter  17:  -171.57054018591623    8.52651e-14   1.18672e-09 DIIS
   @RHF iter  18:  -171.57054018591631   -8.52651e-14   1.01233e-10 DIIS
   @RHF iter  19:  -171.57054018591631    0.00000e+00   1.12171e-11 DIIS

  ==> Post-Iterations <==

    Orbital Energies (a.u.)
    -----------------------

    Doubly Occupied:                                                      

       1Ap   -26.127734     2Ap   -20.491481     3Ap    -2.116318  
       4Ap    -1.120312     5Ap    -0.928926     1App   -0.902158  
       6Ap    -0.758964     7Ap    -0.329687     2App   -0.245294  

    Virtual:                                                              

       8Ap     0.671335     9Ap     1.461851  

    Final Occupation by Irrep:
             Ap   App 
    DOCC [     7,    2 ]

  Energy converged.

  @RHF Final Energy:  -171.57054018591631

   => Energetics <=

    Nuclear Repulsion Energy =             50.3842798697334970
    One-Electron Energy =                -337.8678935877755976
    Two-Electron Energy =                 115.9130735321258783
    DFT Exchange-Correlation Energy =       0.0000000000000000
    Empirical Dispersion Energy =           0.0000000000000000
    PCM Polarization Energy =               0.0000000000000000
    EFP Energy =                            0.0000000000000000
    Total Energy =                       -171.5705401859162009

    Alert: EFP and PCM quantities not currently incorporated into SCF psivars.

Properties will be evaluated at   0.000000,   0.000000,   0.000000 Bohr
  ==> Properties <==


Properties computed using the SCF density matrix

  Nuclear Dipole Moment: (a.u.)
     X:     0.0000      Y:   -10.7581      Z:     8.3148

  Electronic Dipole Moment: (a.u.)
     X:     0.0000      Y:    11.0339      Z:    -7.9133

  Dipole Moment: (a.u.)
     X:     0.0000      Y:     0.2757      Z:     0.4015     Total:     0.4870

  Dipole Moment: (Debye)
     X:     0.0000      Y:     0.7008      Z:     1.0204     Total:     1.2379


  Saving occupied orbitals to File 180.

*** tstop() called on ganymede.local at Sat Apr 25 12:16:27 2015
Module time:
	user time   =       0.40 seconds =       0.01 minutes
	system time =       0.02 seconds =       0.00 minutes
	total time  =          0 seconds =       0.00 minutes
Total time:
	user time   =       0.40 seconds =       0.01 minutes
	system time =       0.02 seconds =       0.00 minutes
	total time  =          0 seconds =       0.00 minutes

*** tstart() called on ganymede.local
*** at Sat Apr 25 12:16:27 2015


	**************************************************
	* TRANSQT2: Program to transform integrals from  *
	*           the SO basis to the MO basis.        *
	*                                                *
	*            Daniel, David, & Justin             *
	**************************************************


	Input parameters:
	-----------------
	Wave function   =	CCSD_T
	Backtransform   =	No
	Print Level     =	1
	Print TEIs      =	No
	Reference wfn   =	RHF
	Derivative      =	None
	Delete TEI File =	Yes
	Memory (Mbytes) =	256.0
	Cache Level     =	2
	Cache Type      =	LRU
	Chkpt Parameters:
	--------------------
	Number of irreps     = 2
	Number of SOs        = 11
	Number of MOs        = 11
	Number of active MOs = 9

	Label	# SOs	# FZDC	# DOCC	# SOCC	# VIRT	# FZVR
	-----	-----	------	------	------	------	------
	 Ap	   9	    2	    5	    0	    2	    0
	 App	   2	    0	    2	    0	    0	    0

	Nuclear Rep. energy (chkpt) =     50.38427986973350
	SCF energy          (chkpt) =   -171.57054018591631

	Presorting SO-basis two-electron integrals.
	Sorting File: SO Ints (pq,rs) nbuckets = 1
	Frozen-core energy = -152.664557092459233
	Starting first half-transformation.
	Sorting half-transformed integrals.
	Starting second half-transformation.
	Two-electron integral transformation complete.

*** tstop() called on ganymede.local at Sat Apr 25 12:16:27 2015
Module time:
	user time   =       0.00 seconds =       0.00 minutes
	system time =       0.01 seconds =       0.00 minutes
	total time  =          0 seconds =       0.00 minutes
Total time:
	user time   =       0.41 seconds =       0.01 minutes
	system time =       0.03 seconds =       0.00 minutes
	total time  =          0 seconds =       0.00 minutes

*** tstart() called on ganymede.local
*** at Sat Apr 25 12:16:27 2015


			**************************
			*                        *
			*         CCSORT         *
			*                        *
			**************************


	Input parameters:
	-----------------
	Wave function   =	CCSD_T
	Reference wfn   =	RHF
	Derivative      =	None
	Memory (Mbytes) =	256.0
	AO Basis        =	NONE
	Make (ab|cd)    =	True
	Make unpacked (ab|cd) =	False
	Cache Level     =	2
	Cache Type      =	LRU
	Local CC        =     No


	Chkpt Parameters:
	--------------------
	Number of irreps     = 2
	Number of MOs        = 11
	Number of active MOs = 9

	Label	# MOs	# FZDC	# DOCC	# SOCC	# VIRT	# FZVR
	-----	-----	------	------	------	------	------
	 Ap	   9	    2	    5	    0	    2	    0
	 App	   2	    0	    2	    0	    0	    0

	Nuclear Rep. energy (chkpt) =     50.38427986973350
	SCF energy          (chkpt) =   -171.57054018591631

	Size of irrep 0 of <ab|cd> integrals:      0.000 (MW) /      0.000 (MB)
	Size of irrep 1 of <ab|cd> integrals:      0.000 (MW) /      0.000 (MB)
	Total:                                     0.000 (MW) /      0.000 (MB)

	Size of irrep 0 of <ia|bc> integrals:      0.000 (MW) /      0.000 (MB)
	Size of irrep 1 of <ia|bc> integrals:      0.000 (MW) /      0.000 (MB)
	Total:                                     0.000 (MW) /      0.000 (MB)

	Size of irrep 0 of tijab amplitudes:       0.000 (MW) /      0.001 (MB)
	Size of irrep 1 of tijab amplitudes:       0.000 (MW) /      0.000 (MB)
	Total:                                     0.000 (MW) /      0.001 (MB)


	Sorting File: A <ij|kl> nbuckets = 1
	Sorting File: B(+) <ab|cd> nbuckets = 1
	Sorting File: C <ia|jb> nbuckets = 1
	Sorting File: D <ij|ab> nbuckets = 1
	Sorting File: E <ai|jk> nbuckets = 1
	Sorting File: F <ia|bc> nbuckets = 1
	Nuclear energy               =     50.38427986973350
	One-electron energy          =   -125.77720912637582
	Two-electron (AA) energy     =     23.94409223303005
	Two-electron (BB) energy     =     23.94409223303005
	Two-electron (AB) energy     =     32.54285393015522
	Two-electron energy          =     56.48694616318527
	Frozen-core energy (transqt) =   -152.66455709245923
	Reference energy             =   -171.57054018591629

*** tstop() called on ganymede.local at Sat Apr 25 12:16:27 2015
Module time:
	user time   =       0.01 seconds =       0.00 minutes
	system time =       0.04 seconds =       0.00 minutes
	total time  =          0 seconds =       0.00 minutes
Total time:
	user time   =       0.42 seconds =       0.01 minutes
	system time =       0.07 seconds =       0.00 minutes
	total time  =          0 seconds =       0.00 minutes

*** tstart() called on ganymede.local
*** at Sat Apr 25 12:16:28 2015

			**************************
			*                        *
			*        CCENERGY        *
			*                        *
			**************************

	Nuclear Rep. energy (chkpt)   =   50.384279869733497
	SCF energy          (chkpt)   = -171.570540185916315
	Reference energy    (file100) = -171.570540185916286

	Input parameters:
	-----------------
	Wave function   =   CCSD_T
	Reference wfn   =     RHF
	Brueckner       =     No
	Memory (Mbytes) =     256.0
	Maxiter         =     50
	R_Convergence   =     1.0e-15
	E_Convergence   =     1.0e-15
	Restart         =     Yes
	DIIS            =     Yes
	AO Basis        =     NONE
	ABCD            =     NEW
	Cache Level     =     2
	Cache Type      =     LOW
	Print Level     =     1
	Num. of threads =     1
	# Amps to Print =     10
	Print MP2 Amps? =     No
	Analyze T2 Amps =     No
	Print Pair Ener =     No
	Local CC        =     No
	SCS-MP2         =     False
	SCSN-MP2        =     False
	SCS-CCSD        =     False

	            Solving CC Amplitude Equations
	            ------------------------------
  Iter             Energy              RMS        T1Diag      D1Diag    New D1Diag    D2Diag
  ----     ---------------------    ---------   ----------  ----------  ----------   --------
     0        -0.028655866003037    0.000e+00    0.000000    0.000000    0.000000    0.073528
     1        -0.035470772298089    2.738e-02    0.002163    0.007974    0.007974    0.096346
     2        -0.038712274206451    1.056e-02    0.003737    0.013825    0.013825    0.109842
     3        -0.038758997391429    1.777e-03    0.004134    0.015323    0.015323    0.110892
     4        -0.038757328092689    5.547e-04    0.004267    0.015829    0.015829    0.111096
     5        -0.038762076597347    1.187e-04    0.004302    0.015961    0.015961    0.111094
     6        -0.038761832294867    1.206e-05    0.004304    0.015967    0.015967    0.111089
     7        -0.038761902902750    1.818e-06    0.004304    0.015968    0.015968    0.111090
     8        -0.038761889853611    3.821e-07    0.004304    0.015968    0.015968    0.111090
     9        -0.038761889523102    8.233e-08    0.004304    0.015968    0.015968    0.111090
    10        -0.038761889442709    1.413e-08    0.004304    0.015968    0.015968    0.111090
    11        -0.038761889520590    2.781e-09    0.004304    0.015968    0.015968    0.111090
    12        -0.038761889482862    5.101e-10    0.004304    0.015968    0.015968    0.111090
    13        -0.038761889481129    7.764e-11    0.004304    0.015968    0.015968    0.111090
    14        -0.038761889481498    1.824e-11    0.004304    0.015968    0.015968    0.111090
    15        -0.038761889481810    4.375e-12    0.004304    0.015968    0.015968    0.111090
    16        -0.038761889481797    9.281e-13    0.004304    0.015968    0.015968    0.111090
    17        -0.038761889481775    1.934e-13    0.004304    0.015968    0.015968    0.111090
    18        -0.038761889481770    5.616e-14    0.004304    0.015968    0.015968    0.111090
    19        -0.038761889481769    1.511e-14    0.004304    0.015968    0.015968    0.111090
    20        -0.038761889481770    2.849e-15    0.004304    0.015968    0.015968    0.111090
    21        -0.038761889481770    5.375e-16    0.004304    0.015968    0.015968    0.111090

	Iterations converged.


	Largest TIA Amplitudes:
	          4   0         0.0157657539
	          3   0        -0.0019411975
	          2   1         0.0017535854
	          4   1         0.0012592932
	          1   1         0.0010729855
	          1   0         0.0007116285
	          2   0        -0.0006684796
	          3   1        -0.0003926754
	          0   0        -0.0002349369
	          0   1         0.0001524361

	Largest TIjAb Amplitudes:
	  4   4   0   0        -0.0693005078
	  1   1   0   0        -0.0322416545
	  1   4   0   0         0.0287068299
	  4   1   0   0         0.0287068299
	  3   3   1   1        -0.0286320304
	  2   4   0   0        -0.0275558756
	  4   2   0   0        -0.0275558756
	  6   6   1   1        -0.0225821226
	  0   0   1   1        -0.0209478479
	  2   2   0   0        -0.0178202525

	SCF energy       (chkpt)              = -171.570540185916315
	Reference energy (file100)            = -171.570540185916286

	Opposite-spin MP2 correlation energy  =   -0.026871761196503
	Same-spin MP2 correlation energy      =   -0.001784104806534
	MP2 correlation energy                =   -0.028655866003037
      * MP2 total energy                      = -171.599196051919336

	Opposite-spin CCSD correlation energy =   -0.036672330118647
	Same-spin CCSD correlation energy     =   -0.002089559363257
	CCSD correlation energy               =   -0.038761889481770
      * CCSD total energy                     = -171.609302075398062


*** tstop() called on ganymede.local at Sat Apr 25 12:16:31 2015
Module time:
	user time   =       0.23 seconds =       0.00 minutes
	system time =       0.39 seconds =       0.01 minutes
	total time  =          3 seconds =       0.05 minutes
Total time:
	user time   =       0.69 seconds =       0.01 minutes
	system time =       0.46 seconds =       0.01 minutes
	total time  =          4 seconds =       0.07 minutes

*** tstart() called on ganymede.local
*** at Sat Apr 25 12:16:31 2015

			**************************
			*                        *
			*        CCTRIPLES       *
			*                        *
			**************************


	Wave function   =    CCSD_T
	Reference wfn   =      RHF

	Nuclear Rep. energy (chkpt)   =   50.384279869733497
	SCF energy          (chkpt)   = -171.570540185916315
	Reference energy    (file100) = -171.570540185916286
	CCSD energy         (file100) =   -0.038761889481770
	Total CCSD energy   (file100) = -171.609302075398062

	Number of ijk index combinations: 84
	Memory available in words        :        32000000
	~Words needed per explicit thread:              32
	Number of threads for explicit ijk threading:    1.
	(T) energy                    =   -0.000209645754452
      * CCSD(T) total energy          = -171.609511721152501


*** tstop() called on ganymede.local at Sat Apr 25 12:16:31 2015
Module time:
	user time   =       0.01 seconds =       0.00 minutes
	system time =       0.02 seconds =       0.00 minutes
	total time  =          0 seconds =       0.00 minutes
Total time:
	user time   =       0.70 seconds =       0.01 minutes
	system time =       0.48 seconds =       0.01 minutes
	total time  =          4 seconds =       0.07 minutes

*** PSI4 exiting successfully. Buy a developer a beer!
